# vtk DataFile Version 3.0
Output from cR2
ASCII
DATASET UNSTRUCTURED_GRID
POINTS       5814 double
     0.00000   289.20000   0.
     1.00000   289.20000   0.
     2.00000   289.20000   0.
     3.00000   289.20000   0.
     4.10000   289.10000   0.
     5.00000   289.10000   0.
     6.00000   289.10000   0.
     7.00000   289.00000   0.
     8.00000   289.00000   0.
     9.00000   289.00000   0.
    10.00000   288.90000   0.
    11.00000   288.90000   0.
    11.90000   288.90000   0.
    12.90000   288.80000   0.
    13.80000   288.80000   0.
    14.80000   288.80000   0.
    15.90000   288.80000   0.
    16.90000   288.70000   0.
    17.80000   288.70000   0.
    18.90000   288.70000   0.
    20.00000   288.70000   0.
    20.80000   288.70000   0.
    21.80000   288.70000   0.
    22.90000   288.70000   0.
    23.90000   288.60000   0.
    24.80000   288.60000   0.
    25.90000   288.60000   0.
    26.90000   288.60000   0.
    27.90000   288.50000   0.
    28.90000   288.50000   0.
    29.90000   288.50000   0.
    30.90000   288.50000   0.
    31.90000   288.50000   0.
    32.90000   288.50000   0.
    33.90000   288.40000   0.
    34.90000   288.40000   0.
    35.80000   288.40000   0.
    36.90000   288.40000   0.
    37.90000   288.40000   0.
    38.90000   288.30000   0.
    39.90000   288.30000   0.
    40.80000   288.30000   0.
    41.80000   288.30000   0.
    42.80000   288.30000   0.
    43.80000   288.30000   0.
    44.90000   288.20000   0.
    45.90000   288.20000   0.
    46.90000   288.20000   0.
    47.90000   288.20000   0.
    48.80000   288.20000   0.
    49.80000   288.10000   0.
    50.80000   288.10000   0.
    51.80000   288.10000   0.
    52.80000   288.10000   0.
    53.90000   288.10000   0.
    54.80000   288.10000   0.
    55.80000   288.10000   0.
    56.80000   288.10000   0.
    57.80000   288.10000   0.
    58.70000   288.10000   0.
    59.70000   288.10000   0.
    60.70000   288.10000   0.
    61.70000   288.10000   0.
    62.70000   288.10000   0.
    63.70000   288.00000   0.
    64.60000   288.00000   0.
    65.60000   287.90000   0.
    66.60000   287.90000   0.
    67.60000   287.80000   0.
    68.60000   287.70000   0.
    69.50000   287.60000   0.
    70.50000   287.50000   0.
     2.03000   264.20000   0.
     5.53000   264.10000   0.
     9.02000   264.00000   0.
    12.52000   263.84000   0.
    16.02000   263.79000   0.
    19.51000   263.70000   0.
    23.01000   263.69000   0.
    26.51000   263.60000   0.
    30.00000   263.50000   0.
    33.50000   263.44000   0.
    37.00000   263.40000   0.
    40.50000   263.30000   0.
    43.99000   263.28000   0.
    47.49000   263.20000   0.
    50.99000   263.10000   0.
    54.48000   263.10000   0.
    57.98000   263.10000   0.
    61.48000   263.10000   0.
    64.97000   262.96000   0.
    68.47000   262.71000   0.
     0.33333   289.20000   0.
     0.66667   289.20000   0.
     1.33333   289.20000   0.
     1.66667   289.20000   0.
     2.33333   289.20000   0.
     2.66667   289.20000   0.
     3.27500   289.17500   0.
     3.55000   289.15000   0.
     3.82500   289.12500   0.
     4.40000   289.10000   0.
     4.70000   289.10000   0.
     5.33333   289.10000   0.
     5.66667   289.10000   0.
     6.33333   289.06667   0.
     6.66667   289.03333   0.
     7.33333   289.00000   0.
     7.66667   289.00000   0.
     8.33333   289.00000   0.
     8.66667   289.00000   0.
     9.33333   288.96667   0.
     9.66667   288.93333   0.
    10.33333   288.90000   0.
    10.66667   288.90000   0.
    11.30000   288.90000   0.
    11.60000   288.90000   0.
    12.23333   288.86667   0.
    12.56667   288.83333   0.
    13.20000   288.80000   0.
    13.50000   288.80000   0.
    14.13333   288.80000   0.
    14.46667   288.80000   0.
    15.07500   288.80000   0.
    15.35000   288.80000   0.
    15.62500   288.80000   0.
    16.23333   288.76667   0.
    16.56667   288.73333   0.
    17.20000   288.70000   0.
    17.50000   288.70000   0.
    18.07500   288.70000   0.
    18.35000   288.70000   0.
    18.62500   288.70000   0.
    19.17500   288.70000   0.
    19.45000   288.70000   0.
    19.72500   288.70000   0.
    20.26667   288.70000   0.
    20.53333   288.70000   0.
    21.13333   288.70000   0.
    21.46667   288.70000   0.
    22.07500   288.70000   0.
    22.35000   288.70000   0.
    22.62500   288.70000   0.
    23.23333   288.66667   0.
    23.56667   288.63333   0.
    24.20000   288.60000   0.
    24.50000   288.60000   0.
    25.07500   288.60000   0.
    25.35000   288.60000   0.
    25.62500   288.60000   0.
    26.23333   288.60000   0.
    26.56667   288.60000   0.
    27.23333   288.56667   0.
    27.56667   288.53333   0.
    28.23333   288.50000   0.
    28.56667   288.50000   0.
    29.23333   288.50000   0.
    29.56667   288.50000   0.
    30.23333   288.50000   0.
    30.56667   288.50000   0.
    31.23333   288.50000   0.
    31.56667   288.50000   0.
    32.23333   288.50000   0.
    32.56667   288.50000   0.
    33.23333   288.46667   0.
    33.56667   288.43333   0.
    34.23333   288.40000   0.
    34.56667   288.40000   0.
    35.20000   288.40000   0.
    35.50000   288.40000   0.
    36.07500   288.40000   0.
    36.35000   288.40000   0.
    36.62500   288.40000   0.
    37.23333   288.40000   0.
    37.56667   288.40000   0.
    38.23333   288.36667   0.
    38.56667   288.33333   0.
    39.23333   288.30000   0.
    39.56667   288.30000   0.
    40.20000   288.30000   0.
    40.50000   288.30000   0.
    41.13333   288.30000   0.
    41.46667   288.30000   0.
    42.13333   288.30000   0.
    42.46667   288.30000   0.
    43.13333   288.30000   0.
    43.46667   288.30000   0.
    44.07500   288.27500   0.
    44.35000   288.25000   0.
    44.62500   288.22500   0.
    45.23333   288.20000   0.
    45.56667   288.20000   0.
    46.23333   288.20000   0.
    46.56667   288.20000   0.
    47.23333   288.20000   0.
    47.56667   288.20000   0.
    48.20000   288.20000   0.
    48.50000   288.20000   0.
    49.13333   288.16667   0.
    49.46667   288.13333   0.
    50.13333   288.10000   0.
    50.46667   288.10000   0.
    51.13333   288.10000   0.
    51.46667   288.10000   0.
    52.13333   288.10000   0.
    52.46667   288.10000   0.
    53.07500   288.10000   0.
    53.35000   288.10000   0.
    53.62500   288.10000   0.
    54.20000   288.10000   0.
    54.50000   288.10000   0.
    55.13333   288.10000   0.
    55.46667   288.10000   0.
    56.13333   288.10000   0.
    56.46667   288.10000   0.
    57.13333   288.10000   0.
    57.46667   288.10000   0.
    58.10000   288.10000   0.
    58.40000   288.10000   0.
    59.03333   288.10000   0.
    59.36667   288.10000   0.
    60.03333   288.10000   0.
    60.36667   288.10000   0.
    61.03333   288.10000   0.
    61.36667   288.10000   0.
    62.03333   288.10000   0.
    62.36667   288.10000   0.
    63.03333   288.06667   0.
    63.36667   288.03333   0.
    64.00000   288.00000   0.
    64.30000   288.00000   0.
    64.93333   287.96667   0.
    65.26667   287.93333   0.
    65.93333   287.90000   0.
    66.26667   287.90000   0.
    66.93333   287.86667   0.
    67.26667   287.83333   0.
    67.93333   287.76667   0.
    68.26667   287.73333   0.
    68.90000   287.66667   0.
    69.20000   287.63333   0.
    69.83333   287.56667   0.
    70.16667   287.53333   0.
    -0.30333   264.20000   0.
     0.86333   264.20000   0.
     3.19667   264.16667   0.
     4.36333   264.13333   0.
     6.69333   264.06667   0.
     7.85667   264.03333   0.
    10.18667   263.94667   0.
    11.35333   263.89333   0.
    13.68667   263.82333   0.
    14.85333   263.80667   0.
    17.18333   263.76000   0.
    18.34667   263.73000   0.
    20.67667   263.69667   0.
    21.84333   263.69333   0.
    24.17667   263.66000   0.
    25.34333   263.63000   0.
    27.67333   263.56667   0.
    28.83667   263.53333   0.
    31.16667   263.48000   0.
    32.33333   263.46000   0.
    34.66667   263.42667   0.
    35.83333   263.41333   0.
    38.16667   263.36667   0.
    39.33333   263.33333   0.
    41.66333   263.29333   0.
    42.82667   263.28667   0.
    45.15667   263.25333   0.
    46.32333   263.22667   0.
    48.65667   263.16667   0.
    49.82333   263.13333   0.
    52.15333   263.10000   0.
    53.31667   263.10000   0.
    55.64667   263.10000   0.
    56.81333   263.10000   0.
    59.14667   263.10000   0.
    60.31333   263.10000   0.
    62.64333   263.05333   0.
    63.80667   263.00667   0.
    66.13667   262.87667   0.
    67.30333   262.79333   0.
    69.63667   262.64000   0.
    70.80333   262.57000   0.
    49.21113   262.13964   0.
    29.33665   262.32147   0.
    10.88099   262.90352   0.
    39.88785   262.30794   0.
    58.55374   262.16316   0.
    20.21123   262.45349   0.
     1.51003   263.18665   0.
    64.29710   261.98693   0.
    55.27710   262.15865   0.
    60.89667   262.09068   0.
    22.29533   262.50038   0.
    66.64256   261.83200   0.
     6.08338   263.10115   0.
    15.40526   262.99684   0.
    34.05702   262.33569   0.
    44.54743   262.18475   0.
    31.73268   262.45964   0.
    12.94284   262.59262   0.
    36.40512   262.39630   0.
    17.70182   262.67316   0.
    42.26908   262.16868   0.
    52.75818   262.13353   0.
    25.90072   262.60604   0.
     8.40736   263.03148   0.
    46.78950   262.20815   0.
     3.64157   263.12823   0.
    62.88712   261.66593   0.
    -0.56030   262.53374   0.
    24.54331   262.33730   0.
    59.72856   262.13381   0.
    50.41172   262.13688   0.
    21.26177   262.77696   0.
    11.92021   263.01117   0.
    28.14396   262.47533   0.
    30.50081   262.46393   0.
    32.87708   262.41203   0.
    14.34750   262.57588   0.
    18.86061   262.55295   0.
    40.98222   262.21443   0.
    26.98996   262.51567   0.
    35.28450   262.35064   0.
    54.00043   262.07028   0.
     4.90006   263.12479   0.
     7.24624   263.06325   0.
    48.03051   262.16154   0.
[...]
POINT_DATA      5814
CELL_DATA     11235
SCALARS Magnitude(ohm.m) double 1
LOOKUP_TABLE default
            23.52823            36.47382            15.97143            24.99128            24.17020            15.89049            19.15712            17.46017            18.94174            24.59647            25.95477            15.91827            33.94192            32.71152            25.56627            31.51455            40.83238            37.94565            28.42199            16.15233            18.71103            16.27384            19.61556            16.44409            23.67402            16.07520            16.24134            19.18840            19.22352            16.70462            16.43097            24.48563            15.98576            17.55088            27.33779            18.70547            17.03279            19.80449            16.67551            15.95766            15.95024            22.92837            17.23234            18.15517            16.94768            20.98542            17.76982            39.32114            23.89310            20.72235            22.23067            23.00870            17.57005            21.39418            26.30775            20.13029            18.89357            16.49927            17.41324            22.16240            16.15121            16.09680            16.27933            17.89566            24.70646            18.28013            18.93125            19.35685            15.94790            16.25675            19.81927            16.78925            19.41468            18.43083            16.47242            15.89693            26.50279            17.32351            25.02849            19.62927            18.36509            15.88458            25.96177            16.73608            17.15597            30.38568            17.01577            22.53290            17.87632            35.12067            24.24694            16.03494            17.66220            23.39140            16.03077            21.00057            20.38001            18.02587            17.54097            22.51750            21.71690            21.62210            20.79107            28.92242            21.84901            21.28015            20.05692            25.53944            20.59558            23.10919            25.36287            29.83278            29.41118            20.38792            22.17769            21.43591            20.17037            21.71591            80.97183            31.75996            62.53729            34.95921            44.79570            41.09305            30.60390            26.83538            21.94092            23.11213            39.45154            30.93276            63.90931            41.69087            52.64615            30.48914            29.31512            53.22387            50.82645            29.12339            59.19886            26.69046            35.08413            40.35374            30.77230            30.63161            55.04341            26.61361            33.04994            80.10790            30.73486            72.39045            53.32842            31.53397            30.38428            48.12782            30.09951            29.97635            22.77808            29.11566            18.77297            66.60782            73.12951            36.09811            40.73968            27.31333            34.98103            33.65051            37.90746            31.04905            31.72173            37.22782            33.36956            45.98162            33.06510            47.32951            31.67723            39.59525            25.97472            38.19237            54.18217            35.60262            79.11192            33.72286            43.57659            56.15912            29.45368            36.92577            31.01598            34.69996            26.58270            36.73994            39.69052            50.23102            34.26250            64.18547            18.59978            51.24251            29.77071            38.09298            65.59853            29.08536            24.02788            23.77356            25.34391            26.37162            48.95504            33.81291            26.39699            30.71301            56.00395            36.86175            39.21443            26.94138            41.12634            58.01800            46.66905            40.07163            23.57833            33.45284            33.81113            34.11850            32.95742            23.87154            30.35918            36.48457            59.94765            54.24976            26.64634            41.99033            27.71041            26.36342            42.74172            43.16359            80.72337            23.46944            47.37443            40.77418            37.33027            25.84559            33.74885            30.20079            34.31562            63.21601            39.88452            41.80704            31.03147            67.83824            32.15572            34.10613            63.77450            52.79440            33.18685            25.38286            56.17664            58.80330            27.06989            46.07510            23.97717            30.89199            30.68837            54.86345            49.75335            37.68924            57.96058            30.81494            32.81383            52.62993            32.16583            31.73380            49.44216            32.45475            32.65745            18.85642            43.95470            26.30853            27.72654            33.55277            35.67586            26.27393            44.47857            56.31119            29.80426            19.92555            41.48150            31.07932            29.39724            31.54818            23.66551            64.16294            60.67854            37.86444            24.66305            31.02483            30.46583            40.26724            30.70970            66.03566            51.82637            56.69814            51.79182            53.03096            18.70316            71.07248            22.96969            49.02309            31.03246            24.66947            66.43306            18.25628            25.93766            29.40543            65.00902            29.08135            58.29960            18.11710            65.80763            28.49824            40.30323            42.80176            43.34749            32.14061            63.01885            20.57695            24.56089            58.13788            23.45733            41.04003            25.09394            59.34096            43.48006            40.86985            50.04363            38.55237            36.47183            19.80359            41.67766            31.86029            72.59558            66.18376            19.18522            30.79722            30.35076            48.16780            41.77386            26.87820            53.21278            48.16134            41.56542            24.22755            67.02552            65.03876            27.08300            64.90490            52.22686            30.54103            61.01143            42.44065            72.19882            20.32764            40.18650            40.74325            49.32829            79.65167            53.93559            34.13228            37.00071            36.87842            32.80544            58.88148            66.62467            40.98043            31.20263            21.66378            52.04318            53.55873            64.62919            34.75710            31.07417            51.59678            26.02751            64.82196            21.42762            53.81211            50.35901            18.94910            52.56284            48.20996            80.64116            19.01223            19.02778            62.21575            26.31431            87.02385            31.52279            18.34901            68.66302            30.84229            31.04002            39.46592            76.27653            25.72297            50.49310            31.83352            31.85726            71.24653            40.04326            45.97187            67.05639            27.16651            18.58739            73.84504            26.00933            19.02613            28.33031            58.15444            27.86813            39.92763            27.97024            34.31646            18.67808            25.92607            18.47356            18.14290            29.80511            36.06460            38.76296            61.13905            27.09467            31.62435            19.68305            29.69693            31.22532            44.63599            56.51251            26.46010            53.64923            27.35224            34.42458            37.23258            25.76118            27.13072            71.51612            21.58304            31.49820            62.83975            46.14437            68.23623            19.71790            48.39561            38.76096            20.44954            26.20782            34.16476            58.60204            47.44088            43.57079            18.20137            23.66504            33.34659            58.99620            22.89016            29.13045            39.48527            47.75487            63.32324            77.18597            32.97252            65.38758            27.79863            63.13152            70.23551            39.55381            32.02810            28.77849            39.22924            63.89905            18.76444            44.92942            35.49917            28.87277            24.70110            42.18839            18.49680            36.81531            37.89973            27.49309            43.54755            61.12643            21.54713            18.56482            29.34698            27.94170            33.07192            50.67142            30.68817            31.30317            22.10983            18.12296            40.02394            18.47085            34.54266            30.93341            29.58373            69.43327            59.73786            18.69685            68.81232            52.65405            33.55215            28.41386            31.20625            38.09612            65.03756            65.12108            47.64900            39.04332            31.12690            24.07236            38.47603            60.58275            59.72239            33.05806            30.93700            37.84621            30.61902            50.04126            63.72856            41.91151            35.12565            31.30204            18.56978            46.54811            32.57132            62.33172            30.89342            33.39674            35.80513            69.26027            52.53086            19.69093            23.91753            68.42897            39.56850            26.63063            41.66472            23.29408            30.88312            25.90557            21.53053            27.07761            29.38592            55.23562            54.17108            45.42619            64.78794            32.03336            56.55704            41.62081            27.93114            42.42351            35.82152            57.18761            40.07672            28.47170            54.02661            55.77656            27.26672            70.82259            18.00440            29.72361            36.76797            76.74188            58.32932            21.00762            24.47053            27.24916            53.65587            23.38769            30.48974            24.06661            21.63836            35.71576            46.40255            23.82436            49.23278            73.19479            38.46957            59.77654            31.30367            38.94632            41.55130            31.20378            43.56720            28.00680            34.01542            47.51407            79.52274            31.95128            34.60328            49.51170            57.43313            51.57264            31.04904            75.92222            23.47501            29.23415            29.88679            65.21334            18.59296            36.56071            18.43577            54.09997            58.37718            36.58464            33.15068            35.68411            19.99491            44.17497            64.28653            32.07726            39.24921            51.71191            47.89514            28.39125            47.95605            31.92423            28.35994            29.38366            43.71147            39.33539            28.06282            29.79498            24.26336            29.70662            38.20777            46.25074            20.71292            51.03231            33.26670            25.49352            24.94424            36.17407            26.42251            49.22468            53.15779            56.58840            26.12956            25.04397            53.79407            67.04618            70.72256            57.62959            38.64565            50.29546            23.53514            70.88455            18.20967            40.43937            27.37657            25.47003            68.45145            36.13848            25.24860            61.08531            59.88614            52.52770            24.77081            61.96586            49.45246            69.46886            26.39452            45.93659            36.21383            30.93287            39.78590            30.58162            57.32132            31.96250            28.61423            56.62715            48.66014            31.80327            47.50580            27.32573            38.63903            51.38566            32.11463            71.87704            30.11293            67.93734            33.65958            24.90863            55.35193            32.17936            31.20535            33.55629            33.78267            46.44181            29.26047            20.59878            30.70758            43.05631            23.73928            27.41219            31.13957            73.88673            48.30838            41.33173            51.39455            30.99967            50.99466            25.25426            37.79637            29.52350            36.57866            40.86101            32.66241            39.50233            46.16332            28.04905            18.71477            24.00592            45.56367            21.76963            38.23122            65.85580            47.67120            70.99907            66.45067            37.11023            42.14377            53.58849            45.33985            40.15602            19.20434            80.31307            37.66491            38.63039            31.59391            31.59995            50.14281            26.49970            26.55967            65.62936            54.15816            50.64808            75.28306            35.00862            27.99196            31.07992            37.42904            35.51138            56.58280            56.27361            31.62996            36.31887            49.44250            29.52808            31.00122            27.36352            41.00747            41.55461            28.00738            32.53725            18.95038            35.19354            65.68821            23.95307            29.57424            25.78161            31.16108            26.39563            28.28414            30.63054            25.60704            41.57776            30.88625            18.03100            60.41336            32.73405            31.62880            59.14503            64.62882            36.94827            60.67861            18.79846            36.72749            42.57599            45.71724            29.59937            50.11787            23.87827            54.26120            21.50847            68.79900            18.79443            32.59827            33.34771            30.99241            41.15403            65.96425            48.70693            22.99144            21.44297            30.24864            55.81040            62.85731            35.74216            19.14735            37.71796            33.92124            32.55877            19.10648            35.38839            32.37337            74.08994            75.42622            26.10347            48.13960            27.20978            47.23806            38.48807            30.95336            54.27926            53.04533            40.10857            33.96397            30.38228            44.31152            48.15686            58.71275            27.07341            26.58863            32.48725            41.11846            24.22349            31.50721            26.92323            18.73178            32.36868            36.67190            26.56757            29.68585            61.64189            61.87974            30.94217            18.63612            27.40253            73.50278            21.26956            27.27052            45.95553            57.74464            42.34348            26.88908            65.26444            45.98157            25.80931            31.56276            59.72216            23.78875            25.79523            42.43381            64.92773            24.89410            46.50723            18.86496            34.84743            36.18685            44.76893            27.58906            53.09249            50.47302            30.77539            64.27928            27.26252            37.20148            25.98967            28.07951            33.17940            51.09545            27.41356            18.23360            58.13875            32.26439            32.33252            54.52179            48.68369            24.24762            41.61489            74.09807            25.60529            29.28673            34.18223            37.16347            26.76996            63.28420            55.81783            47.15120            30.19177            26.15546            43.16392            60.43413            58.44288            31.76059            41.78820            26.21505            48.73456            59.53821            44.79007            25.34771            51.12159            53.86549            48.52429            53.91753            19.15080            25.39566            57.25781            26.34761            35.66488            40.61577            59.60996            25.96301            54.54198            33.92509            63.16002            61.00079            48.62343            75.33790            18.89112            24.39745            30.19383            57.15633            75.88604            28.86158            45.27387            47.78577            21.93353            18.69479            27.68580            41.18540            28.58621            28.90234            18.42222            22.28723            42.49180            29.59587            42.63340            31.37390            34.24296            40.19440            54.03713            33.79694            28.89495            22.75969            32.01137            29.60425            34.62910            38.82603            30.95064            33.80438            18.58259            18.82820            35.38543            49.54952            50.97527            58.85981            78.38159            40.61351            25.70303            27.88285            18.40641            43.96226            28.50432            49.10979            67.51674            28.02557            47.28735            41.62245            27.91003            53.92002            40.26621            45.36784            44.24704            60.42882            25.11184            40.49935            18.93820            69.84054            71.18580            50.64222            34.42231            76.71068            42.90999            36.91542            32.44989    