# vtk DataFile Version 3.0
Output from cR2
ASCII
DATASET UNSTRUCTURED_GRID
POINTS      10102 double
     0.00000   299.30000   0.
     1.00000   299.30000   0.
     2.00000   299.30000   0.
     2.90000   299.20000   0.
     4.00000   299.20000   0.
     4.90000   299.10000   0.
     5.90000   299.00000   0.
     6.90000   299.00000   0.
     7.90000   298.90000   0.
     8.90000   298.90000   0.
     9.90000   298.80000   0.
    10.90000   298.80000   0.
    11.90000   298.70000   0.
    12.90000   298.70000   0.
    13.90000   298.70000   0.
    14.90000   298.60000   0.
    15.80000   298.60000   0.
    16.80000   298.50000   0.
    17.80000   298.50000   0.
    18.80000   298.50000   0.
    19.80000   298.50000   0.
    20.80000   298.50000   0.
    21.80000   298.40000   0.
    22.80000   298.40000   0.
    23.80000   298.40000   0.
    24.70000   298.30000   0.
    25.70000   298.30000   0.
    26.80000   298.30000   0.
    27.70000   298.20000   0.
    28.70000   298.20000   0.
    29.80000   298.20000   0.
    30.80000   298.20000   0.
    31.70000   298.10000   0.
    32.80000   298.10000   0.
    33.80000   298.10000   0.
    34.80000   298.10000   0.
    35.80000   298.10000   0.
    36.80000   298.10000   0.
    37.80000   298.10000   0.
    38.80000   298.10000   0.
    39.70000   298.10000   0.
    40.70000   298.10000   0.
    41.80000   298.00000   0.
    42.70000   298.00000   0.
    43.70000   298.00000   0.
    44.70000   297.80000   0.
    45.70000   297.60000   0.
    46.70000   297.50000   0.
    47.70000   297.50000   0.
    48.70000   297.40000   0.
    49.70000   297.40000   0.
    50.70000   297.40000   0.
    51.80000   297.30000   0.
    52.70000   297.30000   0.
    53.70000   297.20000   0.
    54.70000   297.20000   0.
    55.70000   297.10000   0.
    56.70000   297.10000   0.
    57.70000   297.00000   0.
    58.80000   297.00000   0.
    59.70000   297.00000   0.
    60.70000   296.90000   0.
    61.70000   296.90000   0.
    62.70000   296.80000   0.
    63.70000   296.80000   0.
    64.70000   296.80000   0.
    65.70000   296.70000   0.
    66.70000   296.70000   0.
    67.70000   296.70000   0.
    68.70000   296.70000   0.
    69.70000   296.70000   0.
    70.60000   296.70000   0.
     2.03000   274.30000   0.
     5.53000   274.04000   0.
     9.04000   273.89000   0.
    12.54000   273.70000   0.
    16.04000   273.58000   0.
    19.54000   273.50000   0.
    23.04000   273.40000   0.
    26.55000   273.30000   0.
    30.05000   273.20000   0.
    33.55000   273.10000   0.
    37.05000   273.10000   0.
    40.55000   273.10000   0.
    44.05000   272.93000   0.
    47.56000   272.50000   0.
    51.06000   272.37000   0.
    54.56000   272.20000   0.
    58.06000   272.00000   0.
    61.56000   271.90000   0.
    65.07000   271.76000   0.
    68.57000   271.70000   0.
     0.25000   299.30000   0.
     0.50000   299.30000   0.
     0.75000   299.30000   0.
     1.25000   299.30000   0.
     1.50000   299.30000   0.
     1.75000   299.30000   0.
     2.22500   299.27500   0.
     2.45000   299.25000   0.
     2.67500   299.22500   0.
     3.12000   299.20000   0.
     3.34000   299.20000   0.
     3.56000   299.20000   0.
     3.78000   299.20000   0.
     4.22500   299.17500   0.
     4.45000   299.15000   0.
     4.67500   299.12500   0.
     5.15000   299.07500   0.
     5.40000   299.05000   0.
     5.65000   299.02500   0.
     6.15000   299.00000   0.
     6.40000   299.00000   0.
     6.65000   299.00000   0.
     7.15000   298.97500   0.
     7.40000   298.95000   0.
     7.65000   298.92500   0.
     8.15000   298.90000   0.
     8.40000   298.90000   0.
     8.65000   298.90000   0.
     9.15000   298.87500   0.
     9.40000   298.85000   0.
     9.65000   298.82500   0.
    10.15000   298.80000   0.
    10.40000   298.80000   0.
    10.65000   298.80000   0.
    11.15000   298.77500   0.
    11.40000   298.75000   0.
    11.65000   298.72500   0.
    12.15000   298.70000   0.
    12.40000   298.70000   0.
    12.65000   298.70000   0.
    13.15000   298.70000   0.
    13.40000   298.70000   0.
    13.65000   298.70000   0.
    14.15000   298.67500   0.
    14.40000   298.65000   0.
    14.65000   298.62500   0.
    15.12500   298.60000   0.
    15.35000   298.60000   0.
    15.57500   298.60000   0.
    16.05000   298.57500   0.
    16.30000   298.55000   0.
    16.55000   298.52500   0.
    17.05000   298.50000   0.
    17.30000   298.50000   0.
    17.55000   298.50000   0.
    18.05000   298.50000   0.
    18.30000   298.50000   0.
    18.55000   298.50000   0.
    19.05000   298.50000   0.
    19.30000   298.50000   0.
    19.55000   298.50000   0.
    20.05000   298.50000   0.
    20.30000   298.50000   0.
    20.55000   298.50000   0.
    21.05000   298.47500   0.
    21.30000   298.45000   0.
    21.55000   298.42500   0.
    22.05000   298.40000   0.
    22.30000   298.40000   0.
    22.55000   298.40000   0.
    23.05000   298.40000   0.
    23.30000   298.40000   0.
    23.55000   298.40000   0.
    24.02500   298.37500   0.
    24.25000   298.35000   0.
    24.47500   298.32500   0.
    24.95000   298.30000   0.
    25.20000   298.30000   0.
    25.45000   298.30000   0.
    25.92000   298.30000   0.
    26.14000   298.30000   0.
    26.36000   298.30000   0.
    26.58000   298.30000   0.
    27.02500   298.27500   0.
    27.25000   298.25000   0.
    27.47500   298.22500   0.
    27.95000   298.20000   0.
    28.20000   298.20000   0.
    28.45000   298.20000   0.
    28.92000   298.20000   0.
    29.14000   298.20000   0.
    29.36000   298.20000   0.
    29.58000   298.20000   0.
    30.05000   298.20000   0.
    30.30000   298.20000   0.
    30.55000   298.20000   0.
    31.02500   298.17500   0.
    31.25000   298.15000   0.
    31.47500   298.12500   0.
    31.92000   298.10000   0.
    32.14000   298.10000   0.
    32.36000   298.10000   0.
    32.58000   298.10000   0.
    33.05000   298.10000   0.
    33.30000   298.10000   0.
    33.55000   298.10000   0.
    34.05000   298.10000   0.
    34.30000   298.10000   0.
    34.55000   298.10000   0.
    35.05000   298.10000   0.
    35.30000   298.10000   0.
    35.55000   298.10000   0.
    36.05000   298.10000   0.
    36.30000   298.10000   0.
    36.55000   298.10000   0.
    37.05000   298.10000   0.
    37.30000   298.10000   0.
    37.55000   298.10000   0.
    38.05000   298.10000   0.
    38.30000   298.10000   0.
    38.55000   298.10000   0.
    39.02500   298.10000   0.
    39.25000   298.10000   0.
    39.47500   298.10000   0.
    39.95000   298.10000   0.
    40.20000   298.10000   0.
    40.45000   298.10000   0.
    40.92000   298.08000   0.
    41.14000   298.06000   0.
    41.36000   298.04000   0.
    41.58000   298.02000   0.
    42.02500   298.00000   0.
    42.25000   298.00000   0.
    42.47500   298.00000   0.
    42.95000   298.00000   0.
    43.20000   298.00000   0.
    43.45000   298.00000   0.
    43.95000   297.95000   0.
    44.20000   297.90000   0.
    44.45000   297.85000   0.
    44.95000   297.75000   0.
    45.20000   297.70000   0.
    45.45000   297.65000   0.
    45.95000   297.57500   0.
    46.20000   297.55000   0.
    46.45000   297.52500   0.
    46.95000   297.50000   0.
    47.20000   297.50000   0.
    47.45000   297.50000   0.
    47.95000   297.47500   0.
    48.20000   297.45000   0.
    48.45000   297.42500   0.
    48.95000   297.40000   0.
    49.20000   297.40000   0.
    49.45000   297.40000   0.
    49.95000   297.40000   0.
    50.20000   297.40000   0.
    50.45000   297.40000   0.
    50.92000   297.38000   0.
    51.14000   297.36000   0.
    51.36000   297.34000   0.
    51.58000   297.32000   0.
    52.02500   297.30000   0.
    52.25000   297.30000   0.
    52.47500   297.30000   0.
    52.95000   297.27500   0.
    53.20000   297.25000   0.
    53.45000   297.22500   0.
    53.95000   297.20000   0.
    54.20000   297.20000   0.
    54.45000   297.20000   0.
    54.95000   297.17500   0.
    55.20000   297.15000   0.
    55.45000   297.12500   0.
    55.95000   297.10000   0.
    56.20000   297.10000   0.
    56.45000   297.10000   0.
    56.95000   297.07500   0.
    57.20000   297.05000   0.
    57.45000   297.02500   0.
    57.92000   297.00000   0.
    58.14000   297.00000   0.
    58.36000   297.00000   0.
    58.58000   297.00000   0.
    59.02500   297.00000   0.
    59.25000   297.00000   0.
    59.47500   297.00000   0.
    59.95000   296.97500   0.
    60.20000   296.95000   0.
    60.45000   296.92500   0.
    60.95000   296.90000   0.
    61.20000   296.90000   0.
    61.45000   296.90000   0.
    61.95000   296.87500   0.
    62.20000   296.85000   0.
    62.45000   296.82500   0.
    62.95000   296.80000   0.
    63.20000   296.80000   0.
    63.45000   296.80000   0.
    63.95000   296.80000   0.
    64.20000   296.80000   0.
    64.45000   296.80000   0.
    64.95000   296.77500   0.
    65.20000   296.75000   0.
    65.45000   296.72500   0.
    65.95000   296.70000   0.
    66.20000   296.70000   0.
    66.45000   296.70000   0.
    66.95000   296.70000   0.
    67.20000   296.70000   0.
    67.45000   296.70000   0.
    67.95000   296.70000   0.
    68.20000   296.70000   0.
    68.45000   296.70000   0.
    68.95000   296.70000   0.
    69.20000   296.70000   0.
    69.45000   296.70000   0.
    69.92500   296.70000   0.
    70.15000   296.70000   0.
    70.37500   296.70000   0.
     0.28000   274.30000   0.
     1.15500   274.30000   0.
     2.90500   274.23500   0.
     3.78000   274.17000   0.
     4.65500   274.10500   0.
     6.40750   274.00250   0.
     7.28500   273.96500   0.
     8.16250   273.92750   0.
     9.91500   273.84250   0.
    10.79000   273.79500   0.
    11.66500   273.74750   0.
    13.41500   273.67000   0.
    14.29000   273.64000   0.
    15.16500   273.61000   0.
    16.91500   273.56000   0.
    17.79000   273.54000   0.
    18.66500   273.52000   0.
    20.41500   273.47500   0.
[...]
POINT_DATA     10102
CELL_DATA     19699
SCALARS Magnitude(ohm.m) double 1
LOOKUP_TABLE default
            23.27784            28.31599            27.75533            28.16604            26.48860            24.86451            26.36734            25.97002            26.05960            26.45868            26.96779            24.04329            27.88186            28.70259            24.63859            28.02297            26.76088            25.81319            24.55626            27.30742            29.85053            26.96879            28.55900            25.54791            26.66803            27.36084            26.15513            26.14708            26.53298            24.85367            25.76719            26.09700            26.29950            29.69047            29.58285            26.03439            27.14939            24.48355            28.08686            26.26859            27.75297            26.37824            26.10821            27.33382            27.74171            28.00054            28.59483            27.32623            27.90732            28.74429            28.62089            25.79589            25.85720            28.13587            29.70680            28.88749            26.67888            26.93088            26.15873            26.30217            26.25909            27.43190            25.59288            26.59831            26.50674            26.59517            28.76253            27.54313            23.17909            27.58158            24.80351            24.36776            23.94646            25.95193            28.70117            26.38596            27.14318            26.80757            28.21212            27.23037            27.38202            27.58812            27.79413            27.68393            28.10639            28.44580            27.10266            26.82612            25.72936            26.60354            22.35393            29.58469            22.72281            25.54641            26.30611            22.21011            27.15153            26.37913            22.81121            29.14404            22.51285            29.12409            25.88130            26.34239            22.13237            29.49871            29.44195            22.96094            27.24222            27.38106            30.00921            29.25134            29.04506            22.25245            29.80794            27.88784            29.39191            24.46584            29.78438            24.06492            26.46135            28.76408            22.17459            28.39865            29.97294            26.01105            28.46009            23.21746            22.11768            26.44560            28.44205            26.59904            26.81375            23.52521            27.97734            28.71951            27.26065            22.35593            28.83310            29.22830            27.70086            22.88886            25.90915            28.09786            25.57286            22.10193            27.36371            26.93917            26.68921            22.20403            26.35979            30.10807            22.37866            29.28211            22.10804            28.95630            29.12262            23.92845            27.60605            24.87523            28.97437            25.17994            29.48047            27.78544            26.15471            29.12768            28.75363            22.16100            27.15042            22.25079            29.69121            22.05917            25.18464            28.46929            28.16895            28.45030            22.09281            26.47184            26.60287            29.12825            22.05135            27.62712            30.01537            23.51224            29.76616            26.14875            27.91578            28.17151            26.95373            26.27649            27.38472            29.93272            29.50230            25.20678            26.43139            23.10087            26.62802            26.30297            26.96284            23.28365            22.58945            23.62021            26.28086            26.30876            29.82358            26.62012            26.14094            23.24522            27.89589            29.81143            26.59407            25.87971            23.67693            25.75436            27.54058            27.66956            27.75377            26.97405            22.55384            26.81349            26.76198            26.10326            26.77737            27.51239            26.05937            25.89083            26.70845            26.32948            26.79841            26.33013            29.49534            28.96670            29.76784            30.02382            27.68837            29.18659            28.46888            26.49066            23.57936            29.31941            25.76201            26.69980            26.27422            26.84222            28.73134            28.75848            26.96102            28.34706            28.45908            29.12440            28.18414            28.17314            28.39563            27.16571            27.15436            29.08580            34.81704            35.51621            28.11705            30.50502            22.91066            29.94720            33.68849            41.78349            40.72645            25.49672            37.77559            21.84106            29.21340            30.16991            82.46078            28.15983            37.65347            39.11137            43.60032            92.91596            36.16140            40.75909            34.05326            28.47841            48.41951            29.30016            36.90483            31.66305            28.27892            30.00947            34.76329            30.64086            41.01957            50.00493            40.46128            56.02192            50.10900            23.32416            36.80948            32.02541            29.90897            26.05098            28.30381            27.59563            42.22869            34.41070            27.96755            34.42641            34.35998            38.96999            26.85360            37.34763            33.98599            30.76092            40.18931            28.42598            49.59246            34.74032            35.40416            41.08064            29.73518            33.93867            32.64358            26.36731            48.64811            42.31002            30.48601            63.86552            28.70998            34.77480            42.39340            21.20517            51.87290            22.49171            33.97271            49.31761            37.50167            35.42343            46.11027            49.14954            29.46596            33.95900            43.29311            26.68955            32.91127            37.63716            41.10820            40.06947            36.99891            34.00152            28.25056            38.25374            40.77124            48.15325            37.00533            37.88127            44.53213            31.43272            28.44707            28.91687            27.36141            42.63348            35.69708            35.30209            48.56241            50.21630            32.17104            34.01117            30.71309            47.97440            45.81270            36.51935            34.02741            48.25842            44.75761            29.34823            39.37811           159.44033            48.72841            50.99945            40.90508            28.82409            38.91173            26.75404            40.87123            85.23645            47.75753            49.56654            49.73335            31.30696            41.43609            34.35039            41.34618            28.31592            50.34777            40.57880            32.96598            30.51615            36.89526            36.79669            28.64804            41.40673            48.86919            41.04740            36.75037            29.89660            36.38718            29.27884            36.30214            34.75980            30.24735            34.90528            50.20638            40.99488            24.12464            44.81284            41.68776            34.48957            52.48151            29.27253            46.97557            29.73230            48.97997            22.82379            35.28483            30.75609            28.08373            33.53730            47.68668            33.49059            83.25294            33.69823            29.59051            29.86802            39.87910            41.54949            30.04362            35.06195            27.44393            26.78222            42.31633            46.43143            46.39610            74.32036            29.10116            29.22865            48.36309            32.47854            45.73363            47.82363            48.16701            46.23896            40.40893           145.02376            33.02994            30.55492            48.40607            34.35889            29.26146            37.35670            30.98031            34.86883            28.06379            44.38954            74.07265            32.80910            47.41212            33.24734            29.98382            39.58977            34.02183            29.34191            40.63118            45.44209            41.03336            33.33109            44.17320            56.64508            38.13537            47.44365            28.10868            35.13202            25.80016            27.93176            33.81821            31.63743            32.61330            85.85621            39.45779            40.84136            32.46117            37.91496            42.50059            45.85144            31.76662            29.67084            29.91514            33.99071            33.69277            37.39231            26.09401            28.96935            33.86565            41.39789            35.02754            48.73811            22.24826            35.97594            26.07747            42.73929            36.70605            31.39378            41.37697            49.95280            41.70390            32.72156            50.98771            27.69447            30.77539            38.69149            37.00494            39.99015            29.86705            29.84411            50.17234            36.19486            48.96142            40.97243            29.34576            33.80691            38.78775            34.03330            42.97767            39.37959            39.31100            37.96059            48.35139            30.62069            29.91203            29.27866            32.93768            31.03243            45.12266            75.09460            46.34439            35.64937            48.09970            34.34244            29.01261            34.32677            26.43398            26.67170            30.80766            38.97094            41.12427            44.73727            35.90091            50.07235            26.52004            50.62706            43.06482            29.20754            43.02981            31.84396            34.22638            25.95143            32.75269            36.50570            35.08908            98.87430            33.05086            33.33961            38.12437            61.54821            27.75717            45.63400            42.62690            37.54011            39.07682            36.15780            30.96999            32.05999            21.92460            47.23339            32.88408            32.03696            39.47579            36.46533            35.63445            24.87893            41.92603            29.42473            27.79465            51.35873            29.41492            22.52264            49.65230            32.55814            46.69253            84.29902            40.80049            35.11786            28.31568            41.64127            42.49661            35.07790            32.59606            45.23235            48.43998            29.85508            38.56805            46.54174            40.56674            37.20607            35.46490            38.02002            33.69055            31.80087            41.18300            41.74910            23.14706            34.37734            28.60302            30.67819            28.51577            39.03943            34.96747            25.93062            28.68964            28.86941            34.61969            28.18357            28.18924            37.28324            31.92848            28.38737            53.37048            34.69893            30.59400            31.01278            31.21964            26.60053            39.16105            37.19615            34.32994            29.23866            27.56788            40.82067            52.77561            28.41964            26.22377            31.70197            22.72466            33.41318            45.21291            41.82116            40.73968            35.76876            28.22025            51.76005            21.16292            31.52059            40.39314            32.09809            37.61441            27.59696            32.10818            30.34164            76.23356            28.41086            28.30530            29.77772            31.80586            30.50563            31.28000            36.52827            42.03875            33.11832            27.02606            40.35664            37.25908            28.92198            33.77828            30.38571            45.88488            24.75057            41.74776            29.48533            57.34203            35.48231            44.37252            35.78819            38.62094            30.78758            38.41732            30.20094            43.86167            40.91830            49.14370            28.21608            40.90351            28.55331            29.14214            28.80007            29.80221            46.76522            30.77312            50.55462            30.14018            42.60457            32.78099            35.36307            31.51383            22.05790            29.47887            42.35904            28.78091            31.28386            46.80959            30.73108            46.91006            33.62831            26.00259            47.05874            28.90379            36.47498            40.82024            27.65197            46.64877            35.67445            30.69660            34.04307            32.73780            36.80508            37.97457            27.90250            27.62004            38.40245            51.85475            42.53666            50.13068            28.12429            37.07828            35.53844            30.93460            34.21779            35.31673            29.01310            35.03446            40.18071            47.74373            31.04350            46.74540            32.59252            43.42834            36.68797            78.64103            28.07861            37.46007            28.70740            83.02822            44.30269            30.25567            27.61373            53.26114            31.69892            30.56154            35.40233            51.15072            29.45805            29.41953            34.66392            28.20690            46.72094            46.90023            27.61517            27.88698            29.28441            35.11971            42.10903            48.15718            25.34303            34.19040            32.25382            27.86530            32.06674            27.48231            32.55545            39.36862            51.28975            29.36924            48.04819            36.70950            27.81434            37.44429            45.09776            43.38959            29.40361            47.11014            31.65702            35.51649            37.82967            50.76289            36.51715            33.96486            46.09320            34.10983            46.19383            30.05099            49.10389            50.44271            26.22545            60.88511            37.58874            26.94196            32.85722            31.53231            31.88980            27.90817            31.75184            31.84642            42.43854            41.04344            31.80372            48.63209            29.50228            31.55163            38.59393            29.49225            26.54796            40.60418            48.47494            29.55608            41.00318            36.94363            29.67294            39.97387            44.04843           132.94657            35.48210            28.00935            46.58309            27.74398            33.24238            27.67066            26.84540            24.08184            28.83978            26.80484            43.11484            32.98329            28.77911            41.48825            29.18488            23.79961            41.21553            38.68711            27.16445            44.47008            48.56047            32.35256            29.56109            34.70482            29.89029            27.98382            39.18766            32.38952            45.66022            32.19265            44.39026            36.25997            28.97872            28.95438            45.86473            38.95044            30.94491            30.58204            40.86218            27.72055            39.84177            40.86551            26.95291            51.20319            33.43032            33.56275            37.32360            38.32892            49.53895            43.92457            44.76126            32.25218            29.11203            38.00742            31.08199            42.87424            37.16364            31.55200            27.53647            47.65778            50.13387            31.95969            29.29234            43.33208            45.84298            29.60018            89.24254            31.96205            31.93427            45.41434            49.39685            31.27767            27.15613            35.05382            50.14526            29.81891            41.35785            37.40371            30.99597            25.83685            31.22406            35.59083            31.06803            32.08749            31.91348            29.28408           133.12747            40.98801            46.41180            36.72484            41.29567            31.87530            48.54629            32.91799            26.18556            49.05679            31.54681            30.81972            46.22014            34.67732            34.10356            29.78611            45.61849            31.70277            41.07439            31.38972            31.79099            31.27384            37.61666            42.60289            28.96524            52.33553            29.97496            92.96439            33.40655            30.42790            41.61066            27.55194            42.09289            26.60261            46.16235            42.82812            34.29774            26.39574            41.02662            36.78365            29.63377            32.21782            35.34829            41.32445            55.21882            35.76220            28.55650            45.76204            50.64342            38.22564            31.43816            34.94086            38.29196            30.60291            46.32746            38.00900            48.84033            34.23275            33.96667            39.05493            31.51123            37.87266            25.37424            45.25446            25.66108            30.01272            25.91158            37.36090            49.22904            32.52367            29.00513            46.90549            27.95076            33.29944    