# vtk DataFile Version 3.0
Output from cR2
ASCII
DATASET UNSTRUCTURED_GRID
POINTS      10481 double
     0.00000   293.00000   0.
     1.00000   293.00000   0.
     1.90000   293.00000   0.
     3.00000   293.00000   0.
     3.90000   293.00000   0.
     4.90000   293.00000   0.
     5.90000   293.00000   0.
     6.90000   293.00000   0.
     7.90000   293.10000   0.
     8.90000   293.10000   0.
     9.90000   293.10000   0.
    10.90000   293.10000   0.
    12.00000   293.10000   0.
    13.00000   293.10000   0.
    14.00000   293.20000   0.
    15.00000   293.20000   0.
    15.90000   293.20000   0.
    17.00000   293.20000   0.
    18.00000   293.20000   0.
    19.00000   293.20000   0.
    20.00000   293.20000   0.
    21.00000   293.20000   0.
    22.00000   293.20000   0.
    23.10000   293.20000   0.
    24.10000   293.20000   0.
    25.00000   293.20000   0.
    26.10000   293.20000   0.
    27.10000   293.20000   0.
    28.10000   293.20000   0.
    29.10000   293.30000   0.
    30.10000   293.30000   0.
    31.10000   293.30000   0.
    32.10000   293.20000   0.
    33.10000   293.30000   0.
    34.10000   293.30000   0.
    35.10000   293.30000   0.
    36.10000   293.30000   0.
    37.10000   293.30000   0.
    38.10000   293.30000   0.
    39.10000   293.30000   0.
    40.10000   293.30000   0.
    41.10000   293.40000   0.
    42.10000   293.40000   0.
    43.20000   293.40000   0.
    44.10000   293.40000   0.
    45.20000   293.40000   0.
    46.20000   293.40000   0.
    47.20000   293.40000   0.
    48.20000   293.40000   0.
    49.20000   293.40000   0.
    50.20000   293.40000   0.
    51.20000   293.40000   0.
    52.20000   293.40000   0.
    53.20000   293.40000   0.
    54.20000   293.40000   0.
    55.10000   293.40000   0.
    56.20000   293.40000   0.
    57.20000   293.40000   0.
    58.20000   293.50000   0.
    59.20000   293.50000   0.
    60.30000   293.50000   0.
    61.20000   293.50000   0.
    62.20000   293.40000   0.
    63.20000   293.40000   0.
    64.30000   293.40000   0.
    65.20000   293.40000   0.
    66.20000   293.40000   0.
    67.20000   293.50000   0.
    68.20000   293.40000   0.
    69.20000   293.40000   0.
    70.20000   293.50000   0.
    71.20000   293.40000   0.
     2.05000   258.00000   0.
     5.58000   258.00000   0.
     9.11000   258.10000   0.
    12.64000   258.10000   0.
    16.18000   258.20000   0.
    19.71000   258.20000   0.
    23.24000   258.20000   0.
    26.77000   258.20000   0.
    30.30000   258.30000   0.
    33.83000   258.30000   0.
    37.37000   258.30000   0.
    40.90000   258.38000   0.
    44.43000   258.40000   0.
    47.96000   258.40000   0.
    51.49000   258.40000   0.
    55.02000   258.40000   0.
    58.56000   258.50000   0.
    62.09000   258.41000   0.
    65.62000   258.40000   0.
    69.15000   258.40000   0.
     0.25000   293.00000   0.
     0.50000   293.00000   0.
     0.75000   293.00000   0.
     1.22500   293.00000   0.
     1.45000   293.00000   0.
     1.67500   293.00000   0.
     2.12000   293.00000   0.
     2.34000   293.00000   0.
     2.56000   293.00000   0.
     2.78000   293.00000   0.
     3.22500   293.00000   0.
     3.45000   293.00000   0.
     3.67500   293.00000   0.
     4.15000   293.00000   0.
     4.40000   293.00000   0.
     4.65000   293.00000   0.
     5.15000   293.00000   0.
     5.40000   293.00000   0.
     5.65000   293.00000   0.
     6.15000   293.00000   0.
     6.40000   293.00000   0.
     6.65000   293.00000   0.
     7.15000   293.02500   0.
     7.40000   293.05000   0.
     7.65000   293.07500   0.
     8.15000   293.10000   0.
     8.40000   293.10000   0.
     8.65000   293.10000   0.
     9.15000   293.10000   0.
     9.40000   293.10000   0.
     9.65000   293.10000   0.
    10.15000   293.10000   0.
    10.40000   293.10000   0.
    10.65000   293.10000   0.
    11.12000   293.10000   0.
    11.34000   293.10000   0.
    11.56000   293.10000   0.
    11.78000   293.10000   0.
    12.25000   293.10000   0.
    12.50000   293.10000   0.
    12.75000   293.10000   0.
    13.25000   293.12500   0.
    13.50000   293.15000   0.
    13.75000   293.17500   0.
    14.25000   293.20000   0.
    14.50000   293.20000   0.
    14.75000   293.20000   0.
    15.22500   293.20000   0.
    15.45000   293.20000   0.
    15.67500   293.20000   0.
    16.12000   293.20000   0.
    16.34000   293.20000   0.
    16.56000   293.20000   0.
    16.78000   293.20000   0.
    17.25000   293.20000   0.
    17.50000   293.20000   0.
    17.75000   293.20000   0.
    18.25000   293.20000   0.
    18.50000   293.20000   0.
    18.75000   293.20000   0.
    19.25000   293.20000   0.
    19.50000   293.20000   0.
    19.75000   293.20000   0.
    20.25000   293.20000   0.
    20.50000   293.20000   0.
    20.75000   293.20000   0.
    21.25000   293.20000   0.
    21.50000   293.20000   0.
    21.75000   293.20000   0.
    22.22000   293.20000   0.
    22.44000   293.20000   0.
    22.66000   293.20000   0.
    22.88000   293.20000   0.
    23.35000   293.20000   0.
    23.60000   293.20000   0.
    23.85000   293.20000   0.
    24.32500   293.20000   0.
    24.55000   293.20000   0.
    24.77500   293.20000   0.
    25.22000   293.20000   0.
    25.44000   293.20000   0.
    25.66000   293.20000   0.
    25.88000   293.20000   0.
    26.35000   293.20000   0.
    26.60000   293.20000   0.
    26.85000   293.20000   0.
    27.35000   293.20000   0.
    27.60000   293.20000   0.
    27.85000   293.20000   0.
    28.35000   293.22500   0.
    28.60000   293.25000   0.
    28.85000   293.27500   0.
    29.35000   293.30000   0.
    29.60000   293.30000   0.
    29.85000   293.30000   0.
    30.35000   293.30000   0.
    30.60000   293.30000   0.
    30.85000   293.30000   0.
    31.35000   293.27500   0.
    31.60000   293.25000   0.
    31.85000   293.22500   0.
    32.35000   293.22500   0.
    32.60000   293.25000   0.
    32.85000   293.27500   0.
    33.35000   293.30000   0.
    33.60000   293.30000   0.
    33.85000   293.30000   0.
    34.35000   293.30000   0.
    34.60000   293.30000   0.
    34.85000   293.30000   0.
    35.35000   293.30000   0.
    35.60000   293.30000   0.
    35.85000   293.30000   0.
    36.35000   293.30000   0.
    36.60000   293.30000   0.
    36.85000   293.30000   0.
    37.35000   293.30000   0.
    37.60000   293.30000   0.
    37.85000   293.30000   0.
    38.35000   293.30000   0.
    38.60000   293.30000   0.
    38.85000   293.30000   0.
    39.35000   293.30000   0.
    39.60000   293.30000   0.
    39.85000   293.30000   0.
    40.35000   293.32500   0.
    40.60000   293.35000   0.
    40.85000   293.37500   0.
    41.35000   293.40000   0.
    41.60000   293.40000   0.
    41.85000   293.40000   0.
    42.32000   293.40000   0.
    42.54000   293.40000   0.
    42.76000   293.40000   0.
    42.98000   293.40000   0.
    43.42500   293.40000   0.
    43.65000   293.40000   0.
    43.87500   293.40000   0.
    44.32000   293.40000   0.
    44.54000   293.40000   0.
    44.76000   293.40000   0.
    44.98000   293.40000   0.
    45.45000   293.40000   0.
    45.70000   293.40000   0.
    45.95000   293.40000   0.
    46.45000   293.40000   0.
    46.70000   293.40000   0.
    46.95000   293.40000   0.
    47.45000   293.40000   0.
    47.70000   293.40000   0.
    47.95000   293.40000   0.
    48.45000   293.40000   0.
    48.70000   293.40000   0.
    48.95000   293.40000   0.
    49.45000   293.40000   0.
    49.70000   293.40000   0.
    49.95000   293.40000   0.
    50.45000   293.40000   0.
    50.70000   293.40000   0.
    50.95000   293.40000   0.
    51.45000   293.40000   0.
    51.70000   293.40000   0.
    51.95000   293.40000   0.
    52.45000   293.40000   0.
    52.70000   293.40000   0.
    52.95000   293.40000   0.
    53.45000   293.40000   0.
    53.70000   293.40000   0.
    53.95000   293.40000   0.
    54.42500   293.40000   0.
    54.65000   293.40000   0.
    54.87500   293.40000   0.
    55.32000   293.40000   0.
    55.54000   293.40000   0.
    55.76000   293.40000   0.
    55.98000   293.40000   0.
    56.45000   293.40000   0.
    56.70000   293.40000   0.
    56.95000   293.40000   0.
    57.45000   293.42500   0.
    57.70000   293.45000   0.
    57.95000   293.47500   0.
    58.45000   293.50000   0.
    58.70000   293.50000   0.
    58.95000   293.50000   0.
    59.42000   293.50000   0.
    59.64000   293.50000   0.
    59.86000   293.50000   0.
    60.08000   293.50000   0.
    60.52500   293.50000   0.
    60.75000   293.50000   0.
    60.97500   293.50000   0.
    61.45000   293.47500   0.
    61.70000   293.45000   0.
    61.95000   293.42500   0.
    62.45000   293.40000   0.
    62.70000   293.40000   0.
    62.95000   293.40000   0.
    63.42000   293.40000   0.
    63.64000   293.40000   0.
    63.86000   293.40000   0.
    64.08000   293.40000   0.
    64.52500   293.40000   0.
    64.75000   293.40000   0.
    64.97500   293.40000   0.
    65.45000   293.40000   0.
    65.70000   293.40000   0.
    65.95000   293.40000   0.
    66.45000   293.42500   0.
    66.70000   293.45000   0.
    66.95000   293.47500   0.
    67.45000   293.47500   0.
    67.70000   293.45000   0.
    67.95000   293.42500   0.
    68.45000   293.40000   0.
    68.70000   293.40000   0.
    68.95000   293.40000   0.
    69.45000   293.42500   0.
    69.70000   293.45000   0.
    69.95000   293.47500   0.
    70.45000   293.47500   0.
    70.70000   293.45000   0.
    70.95000   293.42500   0.
    -0.30333   258.00000   0.
     0.87333   258.00000   0.
     3.22667   258.00000   0.
     4.40333   258.00000   0.
     6.75667   258.03333   0.
     7.93333   258.06667   0.
    10.28667   258.10000   0.
    11.46333   258.10000   0.
    13.82000   258.13333   0.
    15.00000   258.16667   0.
    17.35667   258.20000   0.
    18.53333   258.20000   0.
    20.88667   258.20000   0.
    22.06333   258.20000   0.
    24.41667   258.20000   0.
[...]
POINT_DATA     10481
CELL_DATA     20433
SCALARS Magnitude(ohm.m) double 1
LOOKUP_TABLE default
            32.10355            33.72111            33.01801            36.42728            32.68792            34.70210            32.37669            31.05961            33.36873            35.06006            36.13314            36.53073            31.27871            35.91006            36.61960            36.69757            36.74352            31.49443            35.64053            34.07141            36.76178            31.68838            34.38263            31.88041            30.84566            35.36369            36.29583            40.04194            23.88577            29.35005            52.45966            29.15525            37.05251            27.51789            53.47789            27.88224            27.27592            21.30700            22.28280            23.48891            21.23037            25.92617            28.90364            21.83562            26.71414            30.46356            32.08772            53.18724            22.89904            29.49507            42.09067            28.17096            33.92320            49.90785            21.89861            32.68001            26.44186            28.78172            40.35386            47.98199            27.60239            22.09870            25.23347            36.85485            39.24384            42.40534            26.02495            37.02699            50.83912            32.90413            23.05640            23.52661            28.18574            31.57421            22.00539            23.99927            50.25674            31.36634            45.89573            23.14363            48.61239            31.09260            30.24997            65.12415            21.56997            24.97431            34.35803            38.95926            30.32754            49.34006            33.54309            23.07468            22.20509            28.37930            27.03591            32.32947            48.59523            32.35564            21.70388            27.44400            31.25574            21.90396            28.97806            23.22775            34.63316            24.53089            23.92586            22.00881            28.51097            27.35773            23.38803            33.40158            28.88648            31.01047            32.11467            25.90618            42.02275            30.91128            28.75858            32.81608            25.07013            28.02294            37.97358            30.70456            22.62951            31.13259            31.03162            26.13076            32.64077            26.79344            27.77197            29.19905            27.37928            30.00711            20.95759            39.82468            22.51516            26.45398            35.98037            26.70264            50.20402            27.85338            21.53126            28.29474            30.91794            35.76858            33.62362            29.11162            22.84887            27.47102            23.28041            21.91555            22.92360            21.06888            31.01394            25.63464            29.16830            52.29750            28.05737            50.28196            33.33870            51.56274            28.99915            24.95608            21.17172            20.36266            28.90502            27.81499            23.64832            56.29364            30.74730            23.71076            28.55052            28.57190            26.58775            25.95443            27.23002            36.91353            24.56180            22.86126            20.87425            30.91254            25.60509            36.91171            23.97844            23.71058            22.63744            31.03325            31.23010            30.73920            27.93841            52.08787            33.05342            19.82168            37.17853            36.77036            36.31223            31.82052            20.12511            28.49287            28.79731            28.90428            20.78925            39.05348            34.62991            22.92622            23.32298            32.10916            36.08969            49.53447            37.08485            40.86961            34.26428            20.42496            24.87359            49.53050            26.33039            27.54926            27.18816            28.20669            23.48226            33.47624            28.90650            36.52829            20.85515            32.73436            27.06996            36.69503            24.40919            28.22830            22.65806            33.84570            21.76852            27.98328            30.48732            20.02067            32.48625            22.15342            25.79933            37.60336            34.47881            28.68644            26.28041            23.67465            38.88177            34.96767            36.94188            38.86453            20.83043            28.90296            28.86948            29.68240            23.51503            22.16061            31.47263            32.14186            28.74411            21.28461            26.91611            20.73016            57.64065            27.02964            23.23697            22.27838            23.13621            27.88943            46.52287            21.40683            21.68015            30.92361            31.39251            31.54031            21.44275            33.20792            22.94151            26.80751            26.61543            23.27805            23.63946            25.63761            27.14632            29.04504            27.15352            26.66517            53.81476            20.26901            24.86518            24.74512            28.37282            30.06330            32.39510            23.12833            31.95044            23.19486            34.74930            32.27059            21.38010            31.08147            26.16290            25.22853            23.38227            35.22016            24.91897            28.79530            24.06029            32.24769            26.41355            28.85672            45.60815            28.61061            20.90759            28.79153            28.46948            29.29428            24.04632            26.13244            30.37327            23.60652            50.83616            50.01670            29.42854            20.75008            32.78899            31.92136            31.21124            18.84476            22.46003            37.20096            28.20032            26.68944            33.56670            22.68736            41.59791            22.70215            27.03768            31.78370            23.44641            21.51315            30.05957            22.73464            37.03356            30.54894            26.10098            19.83007            26.37529            31.88150            20.31643            30.13863            28.51797            26.74567            29.32633            33.05151            26.92219            28.03716            32.92290            18.88003            36.81884            43.25961            51.70087            29.54128            22.02187            19.61114            30.34170            27.70958            24.52420            23.66251            24.79662            31.27136            21.55673            21.91356            44.65198            35.08699            26.31430            30.16509            29.89688            25.63393            23.17805            28.04696            28.72939            25.97430            34.22367            29.26220            26.10472            30.84924            27.11161            30.73774            31.25631            32.10937            51.76788            32.68190            25.10081            31.28738            60.81753            35.37731            42.59467            47.38957            26.23335            21.17129            32.08880            20.16194            44.82788            21.84763            26.77714            35.16074            36.62993            32.79838            28.27787            37.52797            39.09468            26.58670            31.07836            30.85889            27.71644            39.83382            29.20685            21.49153            39.91992            28.25411            26.33980            22.98230            31.04206            28.30171            29.36937            27.09679            35.64427            30.56501            37.37760            24.03033            23.47649            27.79492            34.04026            26.29042            42.40327            19.69744            25.84303            23.73783            28.28030            23.56455            25.62358            29.14388            31.02761            35.76474            21.00592            22.94673            28.66180            28.86512            26.14175            30.56085            28.21560            24.36999            22.87997            36.14560            32.03763            27.43229            26.46687            27.30511            31.66530            23.04172            28.50200            29.88271            35.55955            29.61951            26.88630            37.42610            24.48172            21.96325            27.46608            24.08244            22.22188            32.14732            40.79685            37.27254            29.17283            32.09212            37.46619            22.66788            24.18547            21.44984            22.63528            26.96828            31.58290            24.13040            28.20738            24.84836            21.99791            33.79356            31.24560            24.20150            30.71616            25.82747            25.88998            22.21898            30.97144            24.96457            25.71541            28.12826            29.90168            25.13378            20.09101            24.91586            22.97601            41.31160            26.73405            48.52895            28.02163            26.72480            28.65556            27.94435            19.55142            31.53367            25.90074            23.75802            25.33877            26.64410            32.60724            25.29356            21.50927            35.32899            30.85303            29.98907            46.27116            28.45248            22.25764            39.98980            21.36912            19.52749            21.88356            23.92262            22.82605            21.54268            31.06349            25.75664            26.52964            28.57502            31.68295            31.51737            60.87399            41.28563            20.00607            29.76078            30.88454            28.63840            24.84716            20.97527            22.40786            27.11018            34.75357            29.54353            22.60470            23.01218            31.64733            27.92106            34.27483            25.36181            20.60177            26.01541            28.15379            28.67425            27.61806            30.59744            25.08665            21.34805            28.67384            27.79044            31.11294            26.37947            21.45793            20.60991            26.13404            21.21068            33.97717            22.85653            26.52129            40.39427            27.02859            22.00128            23.23743            24.29354            31.05792            21.64645            19.92907            20.52912            24.63994            29.53307            26.49550            24.23403            37.69114            26.26037            36.03315            22.13770            21.85896            21.21014            22.25599            26.36591            19.40091            31.63986            27.15568            48.03428            25.56957            23.96344            26.22983            35.27645            29.48152            27.31007            20.59872            40.72939            21.25855            30.53217            19.53978            21.20090            37.97613            24.07117            31.42772            21.25208            25.71610            24.84070            28.57839            23.03876            51.71886            21.26266            23.23299            30.77653            25.41187            25.98687            26.37843            24.79343            31.02032            56.19807            20.51464            26.17773            28.12463            24.73808            19.63608            27.40825            26.88084            25.98949            34.90530            28.76602            28.83639            50.11629            24.89717            21.86274            27.87863            21.59595            21.16892            40.61625            27.62766            39.30500            27.93596            29.69105            28.90619            24.68898            25.87854            25.05557            45.49296            30.32321            32.89867            23.28818            20.63617            25.40569            27.76429            20.75005            27.89204            27.75433            29.17278            32.72075            57.13636            27.35608            20.03341            22.07233            30.45031            25.88456            28.09349            31.59109            25.68839            35.91291            23.47063            25.24874            26.51213            26.02915            23.58678            25.19563            25.62732            24.80366            31.46500            25.21033            34.23246            33.81159            44.77588            25.90730            24.60953            35.62324            26.77709            29.12012            25.08812            25.80513            23.09464            22.88856            35.44009            24.52589            24.11955            25.01244            49.73852            27.46546            24.47892            34.92115            20.42435            21.59403            23.74832            40.57534            34.65853            28.29673            43.23723            21.58644            47.59265            30.13649            34.45809            28.45055            24.95793            22.95509            26.48570            23.77959            26.09590            31.24500            21.99329            31.00792            30.69875            20.67354            23.05978            37.75555            26.72833            24.35129            61.32962            34.86865            29.39011            46.75243            29.38053            33.62861            30.26202            29.34784            37.10391            31.14461            56.89109            35.83035            24.17786            24.65425            20.12099            30.74458            27.67050            29.03148            22.75069            27.16654            28.78396            33.82718            31.44981            30.19026            19.87437            33.74457            33.50619            22.21792            18.80189            21.68039            21.65826            25.76989            26.72065            25.34826            22.37051            27.93488            23.28758            28.01325            20.78268            30.09610            25.68235            31.14880            26.67127            38.74532            29.79597            48.16208            37.32920            24.99800            35.53411            21.07572            25.82400            29.74434            31.51460            29.68562            24.38386            26.29561            38.65823            32.12576            22.28450            30.88040            30.80009            19.22273            65.86556            19.29620            29.91482            28.91548            28.92390            50.35206            21.51736            23.98170            23.18518            20.65831            29.58696            29.87370            27.78556            27.09074            41.91269            21.83246            20.77528            22.17333            35.51563            21.08313            26.44433            30.53598            23.57897            44.23599            23.88061            28.77061            33.28833            26.75277            45.20438            34.65648            36.39779            43.33079            23.40096            30.85831            26.88136            28.65456            23.88762            28.31137            20.79709            30.10012            41.08478            23.33628            28.45157            29.36801            30.14976            28.84968            36.32308            27.27425            29.05628            26.68672            24.57692            43.73662            20.77226            36.68474            28.92700            20.90746            41.64849            31.64309            22.21940            31.86236            37.12988            36.40766            30.49124            25.53330            27.45388            24.83853            28.10624            26.93012            26.13549            22.18083            32.45602            18.78376            39.25652            21.34906            41.23619            48.95993            20.25458            24.75445            31.72420            30.26034            27.80861            26.05166            31.73503            31.94137            36.63401            20.44960            29.15881            30.25367            31.14598            33.72095            31.80039            29.42881            30.09183            37.76682            26.76443            20.97042            27.70810            32.65196            25.74777            45.27980            29.99713            23.02908            37.74172            23.70755            30.87776            20.12006            33.73763            27.38819            25.77296            39.13576            33.52759            47.62025            66.13449            26.56880            27.18021            24.42651            27.95567            36.27336            27.69206            29.95115            38.06728            37.55463            23.66437            19.57600            30.22216            28.44600            19.75480            30.79212            28.35343            32.07692            23.46597            30.70012            26.62891            27.04833            24.91772            22.70723            30.08417            26.00028            30.20857            24.46566            22.62568            26.00081            26.33067            24.93643            24.02199            26.68564            37.44353            63.96874            25.92313            35.28680            31.14883            29.14372            25.17417            22.78356            28.66916            37.20399            27.00215            30.12623            25.56877            23.57575            39.65467            34.97715            30.36800            25.70056            26.47120            27.99513            40.08256            22.42526            26.78876            45.31975            23.99477            24.98690            27.57487            28.10963            26.20389            22.25426            26.20633            24.31183            27.97300            21.90321            40.83710            38.90185            35.88473            25.99605            32.16951            26.67117            31.80860            43.03565            26.36408            40.08655            23.72363            28.07078            34.33885            24.49852            27.32044            25.33367            26.45436            29.11286            26.80916            30.09684            22.43033    