# vtk DataFile Version 3.0
Output from cR2
ASCII
DATASET UNSTRUCTURED_GRID
POINTS      10605 double
     0.00000   309.40000   0.
     1.00000   309.40000   0.
     2.00000   309.30000   0.
     3.00000   309.30000   0.
     4.00000   309.20000   0.
     5.00000   309.20000   0.
     6.00000   309.10000   0.
     6.90000   309.10000   0.
     8.00000   309.00000   0.
     9.00000   308.90000   0.
    10.00000   308.90000   0.
    11.00000   308.80000   0.
    12.00000   308.70000   0.
    13.00000   308.70000   0.
    13.90000   308.70000   0.
    15.00000   308.60000   0.
    15.90000   308.60000   0.
    16.90000   308.50000   0.
    18.00000   308.40000   0.
    19.00000   308.30000   0.
    19.90000   308.30000   0.
    20.90000   308.20000   0.
    21.90000   308.00000   0.
    22.90000   307.90000   0.
    23.90000   307.80000   0.
    24.90000   307.80000   0.
    25.90000   307.70000   0.
    26.90000   307.60000   0.
    27.90000   307.50000   0.
    28.90000   307.40000   0.
    29.90000   307.30000   0.
    30.80000   307.20000   0.
    31.90000   307.10000   0.
    32.80000   307.00000   0.
    33.80000   306.90000   0.
    34.80000   306.70000   0.
    35.80000   306.60000   0.
    36.80000   306.40000   0.
    37.80000   306.20000   0.
    38.70000   306.10000   0.
    39.80000   306.00000   0.
    40.80000   305.90000   0.
    41.70000   305.70000   0.
    42.70000   305.60000   0.
    43.70000   305.50000   0.
    44.60000   305.40000   0.
    45.70000   305.30000   0.
    46.70000   305.10000   0.
    47.70000   305.00000   0.
    48.70000   304.80000   0.
    49.60000   304.70000   0.
    50.70000   304.50000   0.
    51.60000   304.40000   0.
    52.70000   304.20000   0.
    53.80000   304.00000   0.
    54.60000   303.90000   0.
    55.50000   303.70000   0.
    56.60000   303.60000   0.
    57.50000   303.40000   0.
    58.50000   303.20000   0.
    59.70000   303.10000   0.
    60.70000   302.90000   0.
    61.50000   302.70000   0.
    62.50000   302.60000   0.
    63.50000   302.40000   0.
    64.40000   302.20000   0.
    65.40000   302.10000   0.
    66.40000   301.90000   0.
    67.40000   301.70000   0.
    68.40000   301.60000   0.
    69.60000   301.40000   0.
    70.50000   301.20000   0.
     2.03000   284.30000   0.
     5.53000   284.15000   0.
     9.02000   283.90000   0.
    12.52000   283.70000   0.
    16.02000   283.59000   0.
    19.51000   283.30000   0.
    23.01000   282.89000   0.
    26.51000   282.64000   0.
    30.00000   282.29000   0.
    33.50000   281.93000   0.
    37.00000   281.36000   0.
    40.50000   280.93000   0.
    43.99000   280.47000   0.
    47.49000   280.02000   0.
    50.99000   279.47000   0.
    54.48000   278.91000   0.
    57.98000   278.30000   0.
    61.48000   277.71000   0.
    64.97000   277.14000   0.
    68.47000   276.59000   0.
     0.25000   309.40000   0.
     0.50000   309.40000   0.
     0.75000   309.40000   0.
     1.25000   309.37500   0.
     1.50000   309.35000   0.
     1.75000   309.32500   0.
     2.25000   309.30000   0.
     2.50000   309.30000   0.
     2.75000   309.30000   0.
     3.25000   309.27500   0.
     3.50000   309.25000   0.
     3.75000   309.22500   0.
     4.25000   309.20000   0.
     4.50000   309.20000   0.
     4.75000   309.20000   0.
     5.25000   309.17500   0.
     5.50000   309.15000   0.
     5.75000   309.12500   0.
     6.22500   309.10000   0.
     6.45000   309.10000   0.
     6.67500   309.10000   0.
     7.12000   309.08000   0.
     7.34000   309.06000   0.
     7.56000   309.04000   0.
     7.78000   309.02000   0.
     8.25000   308.97500   0.
     8.50000   308.95000   0.
     8.75000   308.92500   0.
     9.25000   308.90000   0.
     9.50000   308.90000   0.
     9.75000   308.90000   0.
    10.25000   308.87500   0.
    10.50000   308.85000   0.
    10.75000   308.82500   0.
    11.25000   308.77500   0.
    11.50000   308.75000   0.
    11.75000   308.72500   0.
    12.25000   308.70000   0.
    12.50000   308.70000   0.
    12.75000   308.70000   0.
    13.22500   308.70000   0.
    13.45000   308.70000   0.
    13.67500   308.70000   0.
    14.12000   308.68000   0.
    14.34000   308.66000   0.
    14.56000   308.64000   0.
    14.78000   308.62000   0.
    15.22500   308.60000   0.
    15.45000   308.60000   0.
    15.67500   308.60000   0.
    16.15000   308.57500   0.
    16.40000   308.55000   0.
    16.65000   308.52500   0.
    17.12000   308.48000   0.
    17.34000   308.46000   0.
    17.56000   308.44000   0.
    17.78000   308.42000   0.
    18.25000   308.37500   0.
    18.50000   308.35000   0.
    18.75000   308.32500   0.
    19.22500   308.30000   0.
    19.45000   308.30000   0.
    19.67500   308.30000   0.
    20.15000   308.27500   0.
    20.40000   308.25000   0.
    20.65000   308.22500   0.
    21.15000   308.15000   0.
    21.40000   308.10000   0.
    21.65000   308.05000   0.
    22.15000   307.97500   0.
    22.40000   307.95000   0.
    22.65000   307.92500   0.
    23.15000   307.87500   0.
    23.40000   307.85000   0.
    23.65000   307.82500   0.
    24.15000   307.80000   0.
    24.40000   307.80000   0.
    24.65000   307.80000   0.
    25.15000   307.77500   0.
    25.40000   307.75000   0.
    25.65000   307.72500   0.
    26.15000   307.67500   0.
    26.40000   307.65000   0.
    26.65000   307.62500   0.
    27.15000   307.57500   0.
    27.40000   307.55000   0.
    27.65000   307.52500   0.
    28.15000   307.47500   0.
    28.40000   307.45000   0.
    28.65000   307.42500   0.
    29.15000   307.37500   0.
    29.40000   307.35000   0.
    29.65000   307.32500   0.
    30.12500   307.27500   0.
    30.35000   307.25000   0.
    30.57500   307.22500   0.
    31.02000   307.18000   0.
    31.24000   307.16000   0.
    31.46000   307.14000   0.
    31.68000   307.12000   0.
    32.12500   307.07500   0.
    32.35000   307.05000   0.
    32.57500   307.02500   0.
    33.05000   306.97500   0.
    33.30000   306.95000   0.
    33.55000   306.92500   0.
    34.05000   306.85000   0.
    34.30000   306.80000   0.
    34.55000   306.75000   0.
    35.05000   306.67500   0.
    35.30000   306.65000   0.
    35.55000   306.62500   0.
    36.05000   306.55000   0.
    36.30000   306.50000   0.
    36.55000   306.45000   0.
    37.05000   306.35000   0.
    37.30000   306.30000   0.
    37.55000   306.25000   0.
    38.02500   306.17500   0.
    38.25000   306.15000   0.
    38.47500   306.12500   0.
    38.92000   306.08000   0.
    39.14000   306.06000   0.
    39.36000   306.04000   0.
    39.58000   306.02000   0.
    40.05000   305.97500   0.
    40.30000   305.95000   0.
    40.55000   305.92500   0.
    41.02500   305.85000   0.
    41.25000   305.80000   0.
    41.47500   305.75000   0.
    41.95000   305.67500   0.
    42.20000   305.65000   0.
    42.45000   305.62500   0.
    42.95000   305.57500   0.
    43.20000   305.55000   0.
    43.45000   305.52500   0.
    43.92500   305.47500   0.
    44.15000   305.45000   0.
    44.37500   305.42500   0.
    44.82000   305.38000   0.
    45.04000   305.36000   0.
    45.26000   305.34000   0.
    45.48000   305.32000   0.
    45.95000   305.25000   0.
    46.20000   305.20000   0.
    46.45000   305.15000   0.
    46.95000   305.07500   0.
    47.20000   305.05000   0.
    47.45000   305.02500   0.
    47.95000   304.95000   0.
    48.20000   304.90000   0.
    48.45000   304.85000   0.
    48.92500   304.77500   0.
    49.15000   304.75000   0.
    49.37500   304.72500   0.
    49.82000   304.66000   0.
    50.04000   304.62000   0.
    50.26000   304.58000   0.
    50.48000   304.54000   0.
    50.92500   304.47500   0.
    51.15000   304.45000   0.
    51.37500   304.42500   0.
    51.82000   304.36000   0.
    52.04000   304.32000   0.
    52.26000   304.28000   0.
    52.48000   304.24000   0.
    52.92000   304.16000   0.
    53.14000   304.12000   0.
    53.36000   304.08000   0.
    53.58000   304.04000   0.
    54.00000   303.97500   0.
    54.20000   303.95000   0.
    54.40000   303.92500   0.
    54.82500   303.85000   0.
    55.05000   303.80000   0.
    55.27500   303.75000   0.
    55.72000   303.68000   0.
    55.94000   303.66000   0.
    56.16000   303.64000   0.
    56.38000   303.62000   0.
    56.82500   303.55000   0.
    57.05000   303.50000   0.
    57.27500   303.45000   0.
    57.75000   303.35000   0.
    58.00000   303.30000   0.
    58.25000   303.25000   0.
    58.74000   303.18000   0.
    58.98000   303.16000   0.
    59.22000   303.14000   0.
    59.46000   303.12000   0.
    59.95000   303.05000   0.
    60.20000   303.00000   0.
    60.45000   302.95000   0.
    60.90000   302.85000   0.
    61.10000   302.80000   0.
    61.30000   302.75000   0.
    61.75000   302.67500   0.
    62.00000   302.65000   0.
    62.25000   302.62500   0.
    62.75000   302.55000   0.
    63.00000   302.50000   0.
    63.25000   302.45000   0.
    63.72500   302.35000   0.
    63.95000   302.30000   0.
    64.17500   302.25000   0.
    64.65000   302.17500   0.
    64.90000   302.15000   0.
    65.15000   302.12500   0.
    65.65000   302.05000   0.
    65.90000   302.00000   0.
    66.15000   301.95000   0.
    66.65000   301.85000   0.
    66.90000   301.80000   0.
    67.15000   301.75000   0.
    67.65000   301.67500   0.
    67.90000   301.65000   0.
    68.15000   301.62500   0.
    68.64000   301.56000   0.
    68.88000   301.52000   0.
    69.12000   301.48000   0.
    69.36000   301.44000   0.
    69.82500   301.35000   0.
    70.05000   301.30000   0.
    70.27500   301.25000   0.
     0.28000   284.35000   0.
     1.15500   284.32500   0.
     2.90500   284.26250   0.
     3.78000   284.22500   0.
     4.65500   284.18750   0.
     6.40250   284.08750   0.
     7.27500   284.02500   0.
     8.14750   283.96250   0.
     9.89500   283.85000   0.
    10.77000   283.80000   0.
    11.64500   283.75000   0.
    13.39500   283.67250   0.
    14.27000   283.64500   0.
[...]
POINT_DATA     10605
CELL_DATA     20698
SCALARS Magnitude(ohm.m) double 1
LOOKUP_TABLE default
            16.12244            19.28406            18.88246            14.78648            13.83331            16.32887            18.65811            14.78438            19.04565            14.35662            18.60076            16.87323            14.13227            17.15140            21.05242            20.31923            14.21912            13.79332            18.80769            18.49719            16.09614            19.31819            21.15399            18.48422            14.40184            16.50323            20.12704            14.42524            16.70905            18.89613            14.29487            17.10853            18.76253            19.86805            20.72095            20.27473            19.45157            17.72928            21.11947            15.84707            14.93821            13.86324            16.84044            15.95676            19.47927            17.89221            13.99102            16.25844            14.27790            18.84056            13.86450            17.44048            13.94237            15.12636            19.11385            18.84132            18.29635            19.10886            14.97311            20.98449            17.85268            18.23949            21.05269            17.67888            21.22976            15.59793            14.23903            14.57950            13.80993            15.18521            20.93550            14.09274            13.93513            15.63974            16.69485            13.81427            17.40256            17.65913            18.55350            17.52837            14.15975            14.33426            14.44288            21.23213            14.51891            15.00961            15.63323            19.24349            17.91810            14.58797            17.33227            20.83426            14.16647            14.48538            13.93897            14.90037            18.29264            20.14050            17.68553            16.31219            15.44353            14.45873            17.41457            16.56176            19.41772            20.74889            14.10290            14.15925            14.27862            14.65915            14.04977            14.51821            20.77569            16.30695            20.77800            14.37834            20.20794            20.34934            19.12086            17.12823            18.13289            15.27701            21.04217            17.28797            13.76996            15.24798            18.10822            15.43031            17.72757            13.90944            13.95188            13.99552            20.28067            14.52103            14.84229            19.84578            14.62571            21.19813            14.64744            18.74343            17.52697            17.21254            17.20307            18.03253            14.79961            17.45552            19.74819            14.45862            19.14195            16.10163            13.83395            13.99604            15.14438            20.11880            19.73415            19.35823            19.65405            14.68087            14.38952            18.62414            18.49865            16.18507            18.53695            20.24268            19.83099            20.29863            17.11897            14.05069            19.33955            15.05622            17.93693            15.41407            14.32910            20.19720            14.07518            14.33737            19.74563            17.88041            14.80220            17.42754            19.21465            19.38517            14.43050            16.38660            18.58433            15.33967            19.35710            13.85453            14.03914            18.07663            16.35496            17.02207            20.33304            18.57240            14.31437            18.84647            14.91318            20.47718            17.82713            19.93365            15.66749            17.45372            17.25407            19.95512            15.09111            14.51149            14.69964            16.05336            14.43273            16.01087            20.71582            14.29119            13.91324            17.59076            15.34335            13.86531            17.47305            19.02990            13.90346            19.54921            20.25372            16.18448            18.36737            18.26558            14.32818            14.04667            19.85205            19.90615            19.85400            19.44805            19.59639            18.18129            17.33241            15.49010            15.28380            19.58782            16.02660            18.45810            19.93239            19.43772            20.02614            17.74578            19.25672            14.26449            13.94256            19.49853            20.13494            15.75827            15.20965            13.93089            20.79505            19.67496            16.44851            14.45733            20.12478            16.11931            15.94198            13.79418            15.75385            16.90303            14.13139            16.54563            16.51236            16.85452            14.22506            14.51450            14.22816            19.86768            14.25748            13.96403            18.29532            18.80267            16.85472            18.72990            14.29226            13.89192            17.47125            14.12930            19.12192            19.54349            17.00028            14.34843            18.21508            14.97467            15.95103            20.50046            18.00538            17.02011            14.81632            14.51764            14.50842            14.53390            14.68685            18.38247            19.73640            15.13812            14.91068            14.57832            15.39802            19.60116            14.59538            14.71660            18.27338            21.54743            19.23330            15.68836            21.47611            16.60162            17.63621            16.29721            15.99131            16.92428            17.26969            14.66782            19.57863            14.74678            20.18589            19.44201            14.35581            13.99452            15.58113            19.46159            16.93190            19.46855            17.01389            20.52222            13.98912            14.57979            19.31133            20.04179            19.89871            19.07428            17.07695            16.65213            19.76054            15.92770            16.29579            13.94868            21.42107            19.67071            13.95840            16.25595            14.33037            21.48909            21.54767            16.60901            16.68228            14.55572            20.80636            17.84360            17.33967            21.03416            21.20580            14.68154            19.33322            14.37147            20.05287            17.62726            18.95913            18.60918            14.40726            21.52787            14.12281            15.75132            18.97243            14.85372            17.96502            18.80756            14.27114            20.15068            14.41009            14.25883            19.85307            13.90238            19.52690            18.48559            21.48130            18.15084            21.38128            21.46462            14.28656            19.71851            18.18939            14.17736            19.73810            14.02821            13.73910            15.98380            13.90656            16.15089            13.73333            13.76362            14.58799            17.63137            20.43278            21.06381            17.90915            20.87019            15.44319            16.08175            21.33301            14.21635            14.04460            16.07204            13.99552            21.43036            20.33489            19.08618            18.73727            20.68497            19.60160            16.18664            20.72253            19.44551            17.78971            15.92738            14.36042            13.83941            17.42436            16.74376            17.07368            16.44048            15.54661            15.27394            16.01676            16.14276            15.84066            16.10807            15.03545            19.12172            15.14135            14.57209            17.11358            14.82996            14.17409            19.47153            16.86943            20.92820            16.32360            14.53579            14.66886            15.80814            16.49446            14.54937            21.31966            17.68758            15.96200            14.48010            14.34150            14.59160            14.78029            19.95660            14.26019            16.48347            19.64025            14.66848            18.60427            21.14115            15.90570            19.18815            14.92415            13.88964            18.30203            20.14085            21.30607            15.58394            15.92394            14.70591            20.24630            15.90703            19.83564            21.21241            14.09964            13.96703            19.58950            18.02486            13.73545            19.18075            13.94847            13.74773            16.66462            16.04032            19.72296            16.13072            17.75150            13.87228            16.12738            19.30732            14.64290            21.21199            15.96605            18.27148            16.13549            13.78291            20.50451            14.46546            16.07033            18.96381            20.72594            15.27887            17.90543            14.54370            13.76030            14.84354            16.93587            21.31259            14.19894            19.29230            20.66077            20.75355            19.49639            18.94756            14.98976            16.25862            16.96882            20.62433            16.00990            15.49739            19.35650            14.46501            20.58003            15.93016            17.94790            16.40263            17.31863            20.96929            19.23539            17.61973            16.26337            16.65613            14.59044            13.78488            15.96329            14.08806            15.87068            17.74078            15.92481            20.74592            15.82274            18.48020            19.00323            14.28685            20.25510            15.35288            21.16575            16.56842            14.99004            16.75466            13.81022            15.93455            20.39700            19.22568            16.05245            15.88454            13.82061            17.26572            19.72220            20.56572            19.56221            16.75214            14.50714            14.40054            13.83409            19.93803            21.46062            17.52356            18.06618            16.75468            17.99857            14.38529            20.03744            18.91287            16.60189            21.40988            14.18740            14.05487            13.81929            16.35363            19.23434            14.00442            14.44127            19.09863            19.83093            13.84288            19.96932            14.02895            16.09122            17.10740            17.29217            16.14672            17.30466            13.79442            15.60163            20.31662            15.14381            16.20767            13.87264            20.56058            18.55856            16.39861            13.85913            16.42514            16.04843            14.87107            20.03836            17.48527            14.14420            18.79304            16.10566            13.96355            21.00053            20.10631            17.22969            20.74833            16.96294            16.23334            14.08703            18.68999            21.50487            17.32087            20.53904            13.92002            16.67197            14.11477            16.68125            20.28748            14.23001            18.30982            14.38147            20.41599            16.27511            14.08065            14.10321            21.04360            16.45779            18.20778            20.88405            20.52716            14.58266            13.84881            14.16671            18.59180            20.09933            16.71610            16.20789            16.30863            17.25456            16.17575            20.43898            16.23766            20.28675            17.85812            16.59189            20.40552            19.27916            16.92714            20.57060            19.86984            16.66452            21.05493            20.98594            16.04596            14.37603            19.87840            17.81779            20.38374            17.63615            20.88595            16.32761            14.18584            19.50633            19.42478            18.19202            20.75020            16.58857            14.16545            18.16754            14.23993            20.44220            19.76757            18.96618            19.29892            17.37090            19.22295            16.38704            14.13518            13.97544            14.05280            16.44590            14.10219            14.14474            15.07467            19.66771            14.04375            16.83640            18.07273            18.15813            13.82464            13.85517            18.79941            13.76680            19.79432            20.71153            16.75752            15.97331            20.91963            16.58621            17.98907            17.57986            16.04009            14.96883            16.05123            18.45560            14.02878            16.01434            18.29010            16.83450            13.77310            19.42996            20.57697            17.98689            18.89622            16.01863            20.64068            20.29122            14.00931            16.03353            20.91351            20.31921            19.20020            14.17029            16.51012            20.34180            18.71570            14.11377            20.10347            14.15419            20.21853            19.97934            16.51604            14.22197            14.02872            16.41790            14.28578            20.78221            14.05393            20.25616            16.42499            20.57462            24.59926            27.78411            23.88035            12.02870            16.07530            30.85390            17.23594            19.14182            27.90655            32.23149            15.69358            22.52752            30.03940            23.94262            23.93146            19.38937            16.40483            27.61214            15.36105            15.59961            19.33536            18.90699            15.66069            24.34141            25.10151            20.86473            28.34971            11.42937            24.16345            24.81120            17.19992            21.21213            18.87584            20.01683            30.88010            25.97581            19.62607            22.92105            20.86299            10.59144            31.43303            27.69568            18.76303            24.89921            21.06042            31.93798            27.78409            13.09689            22.99168            29.40344            16.76268            24.98910            18.75850            21.59131            26.79651            29.81602            22.29614            16.05075            45.04997            13.89640            24.77921            20.91326            15.08329            27.55525            24.16796            25.79564            22.90188            19.14128            19.11578            19.21756            27.57993            20.63484            31.15109            19.48707            21.28134            27.79124            29.75796            29.87630            16.43419            25.95517            16.99737            10.32998            21.44942            15.17871            22.44975            19.78700            28.07775            17.13370            22.61070            18.98407            22.38227            31.72003            12.15004            31.03523            30.15558            19.49204            24.30431            16.72483            30.07993            24.24856            22.94951            17.34886            27.93994            19.00128            22.76043            30.54436            24.78716            17.73129            18.86919            14.18253            18.94174            22.40826            19.38629            24.66457            30.19737            23.72138            15.70147            11.31036            27.78293            23.95297            17.43674            23.71994            19.71672            30.64007            32.43289            11.84191            24.05706            22.65190            15.63095            21.81731            22.42445            27.75028            21.45077            16.36217            29.06445            17.34152            19.77301            25.74284            27.23264            31.47368            26.45423            11.15018            24.91713            20.84255            22.81616            22.10031            22.18191            28.41948            21.13695            31.54455            25.46305            28.88624            14.01479            26.94343            29.13161            13.77907            19.19736            28.26031            28.31782            25.78352            27.85837            19.00852            20.09877            31.16773            24.53020            23.20148            15.47153            31.20180            31.56693             9.80275            21.00562            26.20030            30.07017            24.22030            26.97127            20.19766            28.18400            18.70672            21.99328            24.13253            20.56067            30.24094            27.75218            18.03820            22.36783            31.88191            21.73615            18.33238            11.95973            27.79853            27.66543            25.08822            24.09860            15.17223            19.33678            22.83353            17.52005            23.26495            18.03730            31.61655            26.58645            15.35766            26.61682            30.02081             9.93062            20.91917            23.80770            16.44668            21.10710            19.68046            19.56464            17.51105            31.15801            15.69231            20.09115            14.82001            31.28749            12.94041            29.70981            31.01840            29.84652            31.41377            13.19700            23.94263            19.97854            11.07237            27.96181            15.41433            13.13053            22.11196            15.60303            20.51175            23.03520            19.68014            26.06859            11.11888            25.78379            15.69372            31.51020            19.66898            27.74617            21.01183            24.63287            16.13283            26.72225            23.54435    