# vtk DataFile Version 3.0
Output from cR2
ASCII
DATASET UNSTRUCTURED_GRID
POINTS      10257 double
     0.00000   283.70000   0.
     1.00000   283.70000   0.
     2.00000   283.60000   0.
     2.90000   283.60000   0.
     4.00000   283.50000   0.
     4.90000   283.50000   0.
     5.90000   283.40000   0.
     7.00000   283.40000   0.
     7.90000   283.30000   0.
     9.00000   283.30000   0.
    10.00000   283.20000   0.
    11.00000   283.20000   0.
    12.00000   283.10000   0.
    13.00000   283.10000   0.
    13.90000   283.00000   0.
    15.00000   283.00000   0.
    16.00000   282.90000   0.
    17.00000   282.90000   0.
    18.00000   282.80000   0.
    19.00000   282.80000   0.
    20.00000   282.80000   0.
    21.10000   282.70000   0.
    22.00000   282.70000   0.
    23.00000   282.70000   0.
    24.00000   282.60000   0.
    25.00000   282.60000   0.
    26.10000   282.50000   0.
    27.10000   282.50000   0.
    28.00000   282.50000   0.
    29.10000   282.40000   0.
    30.10000   282.40000   0.
    31.10000   282.30000   0.
    32.10000   282.30000   0.
    33.10000   282.30000   0.
    34.10000   282.20000   0.
    35.00000   282.20000   0.
    35.80000   282.10000   0.
    36.70000   282.10000   0.
    37.70000   282.00000   0.
    38.80000   282.00000   0.
    39.70000   282.00000   0.
    40.70000   281.90000   0.
    41.80000   281.90000   0.
    42.80000   281.80000   0.
    43.80000   281.70000   0.
    44.80000   281.60000   0.
    45.80000   281.60000   0.
    46.80000   281.40000   0.
    47.80000   281.40000   0.
    48.80000   281.30000   0.
    49.80000   281.20000   0.
    50.80000   281.20000   0.
    51.80000   281.00000   0.
    52.70000   280.90000   0.
    53.80000   280.80000   0.
    54.80000   280.70000   0.
    55.80000   280.60000   0.
    56.70000   280.50000   0.
    57.80000   280.40000   0.
    58.70000   280.30000   0.
    59.80000   280.30000   0.
    60.80000   280.20000   0.
    61.80000   280.10000   0.
    62.80000   280.10000   0.
    63.80000   280.00000   0.
    64.80000   280.00000   0.
    65.80000   279.90000   0.
    66.80000   279.90000   0.
    67.80000   279.80000   0.
    68.80000   279.80000   0.
    69.80000   279.70000   0.
    70.80000   279.70000   0.
     2.04000   258.60000   0.
     5.55000   258.44000   0.
     9.06000   258.29000   0.
    12.57000   258.10000   0.
    16.08000   257.90000   0.
    19.60000   257.80000   0.
    23.11000   257.69000   0.
    26.62000   257.50000   0.
    30.13000   257.40000   0.
    33.64000   257.25000   0.
    37.16000   257.05000   0.
    40.67000   256.90000   0.
    44.18000   256.66000   0.
    47.69000   256.40000   0.
    51.20000   256.12000   0.
    54.72000   255.71000   0.
    58.23000   255.35000   0.
    61.74000   255.11000   0.
    65.25000   254.95000   0.
    68.76000   254.80000   0.
     0.25000   283.70000   0.
     0.50000   283.70000   0.
     0.75000   283.70000   0.
     1.25000   283.67500   0.
     1.50000   283.65000   0.
     1.75000   283.62500   0.
     2.22500   283.60000   0.
     2.45000   283.60000   0.
     2.67500   283.60000   0.
     3.12000   283.58000   0.
     3.34000   283.56000   0.
     3.56000   283.54000   0.
     3.78000   283.52000   0.
     4.22500   283.50000   0.
     4.45000   283.50000   0.
     4.67500   283.50000   0.
     5.15000   283.47500   0.
     5.40000   283.45000   0.
     5.65000   283.42500   0.
     6.12000   283.40000   0.
     6.34000   283.40000   0.
     6.56000   283.40000   0.
     6.78000   283.40000   0.
     7.22500   283.37500   0.
     7.45000   283.35000   0.
     7.67500   283.32500   0.
     8.12000   283.30000   0.
     8.34000   283.30000   0.
     8.56000   283.30000   0.
     8.78000   283.30000   0.
     9.25000   283.27500   0.
     9.50000   283.25000   0.
     9.75000   283.22500   0.
    10.25000   283.20000   0.
    10.50000   283.20000   0.
    10.75000   283.20000   0.
    11.25000   283.17500   0.
    11.50000   283.15000   0.
    11.75000   283.12500   0.
    12.25000   283.10000   0.
    12.50000   283.10000   0.
    12.75000   283.10000   0.
    13.22500   283.07500   0.
    13.45000   283.05000   0.
    13.67500   283.02500   0.
    14.12000   283.00000   0.
    14.34000   283.00000   0.
    14.56000   283.00000   0.
    14.78000   283.00000   0.
    15.25000   282.97500   0.
    15.50000   282.95000   0.
    15.75000   282.92500   0.
    16.25000   282.90000   0.
    16.50000   282.90000   0.
    16.75000   282.90000   0.
    17.25000   282.87500   0.
    17.50000   282.85000   0.
    17.75000   282.82500   0.
    18.25000   282.80000   0.
    18.50000   282.80000   0.
    18.75000   282.80000   0.
    19.25000   282.80000   0.
    19.50000   282.80000   0.
    19.75000   282.80000   0.
    20.22000   282.78000   0.
    20.44000   282.76000   0.
    20.66000   282.74000   0.
    20.88000   282.72000   0.
    21.32500   282.70000   0.
    21.55000   282.70000   0.
    21.77500   282.70000   0.
    22.25000   282.70000   0.
    22.50000   282.70000   0.
    22.75000   282.70000   0.
    23.25000   282.67500   0.
    23.50000   282.65000   0.
    23.75000   282.62500   0.
    24.25000   282.60000   0.
    24.50000   282.60000   0.
    24.75000   282.60000   0.
    25.22000   282.58000   0.
    25.44000   282.56000   0.
    25.66000   282.54000   0.
    25.88000   282.52000   0.
    26.35000   282.50000   0.
    26.60000   282.50000   0.
    26.85000   282.50000   0.
    27.32500   282.50000   0.
    27.55000   282.50000   0.
    27.77500   282.50000   0.
    28.22000   282.48000   0.
    28.44000   282.46000   0.
    28.66000   282.44000   0.
    28.88000   282.42000   0.
    29.35000   282.40000   0.
    29.60000   282.40000   0.
    29.85000   282.40000   0.
    30.35000   282.37500   0.
    30.60000   282.35000   0.
    30.85000   282.32500   0.
    31.35000   282.30000   0.
    31.60000   282.30000   0.
    31.85000   282.30000   0.
    32.35000   282.30000   0.
    32.60000   282.30000   0.
    32.85000   282.30000   0.
    33.35000   282.27500   0.
    33.60000   282.25000   0.
    33.85000   282.22500   0.
    34.32500   282.20000   0.
    34.55000   282.20000   0.
    34.77500   282.20000   0.
    35.20000   282.17500   0.
    35.40000   282.15000   0.
    35.60000   282.12500   0.
    36.02500   282.10000   0.
    36.25000   282.10000   0.
    36.47500   282.10000   0.
    36.95000   282.07500   0.
    37.20000   282.05000   0.
    37.45000   282.02500   0.
    37.92000   282.00000   0.
    38.14000   282.00000   0.
    38.36000   282.00000   0.
    38.58000   282.00000   0.
    39.02500   282.00000   0.
    39.25000   282.00000   0.
    39.47500   282.00000   0.
    39.95000   281.97500   0.
    40.20000   281.95000   0.
    40.45000   281.92500   0.
    40.92000   281.90000   0.
    41.14000   281.90000   0.
    41.36000   281.90000   0.
    41.58000   281.90000   0.
    42.05000   281.87500   0.
    42.30000   281.85000   0.
    42.55000   281.82500   0.
    43.05000   281.77500   0.
    43.30000   281.75000   0.
    43.55000   281.72500   0.
    44.05000   281.67500   0.
    44.30000   281.65000   0.
    44.55000   281.62500   0.
    45.05000   281.60000   0.
    45.30000   281.60000   0.
    45.55000   281.60000   0.
    46.05000   281.55000   0.
    46.30000   281.50000   0.
    46.55000   281.45000   0.
    47.05000   281.40000   0.
    47.30000   281.40000   0.
    47.55000   281.40000   0.
    48.05000   281.37500   0.
    48.30000   281.35000   0.
    48.55000   281.32500   0.
    49.05000   281.27500   0.
    49.30000   281.25000   0.
    49.55000   281.22500   0.
    50.05000   281.20000   0.
    50.30000   281.20000   0.
    50.55000   281.20000   0.
    51.05000   281.15000   0.
    51.30000   281.10000   0.
    51.55000   281.05000   0.
    52.02500   280.97500   0.
    52.25000   280.95000   0.
    52.47500   280.92500   0.
    52.92000   280.88000   0.
    53.14000   280.86000   0.
    53.36000   280.84000   0.
    53.58000   280.82000   0.
    54.05000   280.77500   0.
    54.30000   280.75000   0.
    54.55000   280.72500   0.
    55.05000   280.67500   0.
    55.30000   280.65000   0.
    55.55000   280.62500   0.
    56.02500   280.57500   0.
    56.25000   280.55000   0.
    56.47500   280.52500   0.
    56.92000   280.48000   0.
    57.14000   280.46000   0.
    57.36000   280.44000   0.
    57.58000   280.42000   0.
    58.02500   280.37500   0.
    58.25000   280.35000   0.
    58.47500   280.32500   0.
    58.92000   280.30000   0.
    59.14000   280.30000   0.
    59.36000   280.30000   0.
    59.58000   280.30000   0.
    60.05000   280.27500   0.
    60.30000   280.25000   0.
    60.55000   280.22500   0.
    61.05000   280.17500   0.
    61.30000   280.15000   0.
    61.55000   280.12500   0.
    62.05000   280.10000   0.
    62.30000   280.10000   0.
    62.55000   280.10000   0.
    63.05000   280.07500   0.
    63.30000   280.05000   0.
    63.55000   280.02500   0.
    64.05000   280.00000   0.
    64.30000   280.00000   0.
    64.55000   280.00000   0.
    65.05000   279.97500   0.
    65.30000   279.95000   0.
    65.55000   279.92500   0.
    66.05000   279.90000   0.
    66.30000   279.90000   0.
    66.55000   279.90000   0.
    67.05000   279.87500   0.
    67.30000   279.85000   0.
    67.55000   279.82500   0.
    68.05000   279.80000   0.
    68.30000   279.80000   0.
    68.55000   279.80000   0.
    69.05000   279.77500   0.
    69.30000   279.75000   0.
    69.55000   279.72500   0.
    70.05000   279.70000   0.
    70.30000   279.70000   0.
    70.55000   279.70000   0.
     0.28500   258.65000   0.
     1.16250   258.62500   0.
     2.91750   258.56000   0.
     3.79500   258.52000   0.
     4.67250   258.48000   0.
     6.42750   258.40250   0.
     7.30500   258.36500   0.
     8.18250   258.32750   0.
     9.93750   258.24250   0.
    10.81500   258.19500   0.
    11.69250   258.14750   0.
    13.44750   258.05000   0.
    14.32500   258.00000   0.
[...]
POINT_DATA     10257
CELL_DATA     20005
SCALARS Magnitude(ohm.m) double 1
LOOKUP_TABLE default
            18.17066            18.12064            18.20608            18.06025            17.57270            17.57014            18.12574            14.77829            17.69867            17.57905            18.12267            15.98008            15.90879            16.67565            16.63494            17.77948            18.04289            16.04286            18.02994            17.74564            18.18040            17.71785            18.22672            17.81551            15.85329            17.54849            17.50962            18.00327            17.06367            18.01736            16.75896            18.00065            17.84744            18.24865            18.13827            17.19540            17.25440            17.59821            18.07197            16.61259            16.47038            17.68489            17.13263            17.96087            18.01562            17.62009            18.21884            16.74572            16.44608            16.85048            18.09340            16.99064            17.55539            17.59757            17.69751            17.64443            17.91637            17.97932            18.19993            16.56775            17.70970            18.08369            17.08444            15.30898            17.69812            17.58120            17.59500            17.84489            17.52668            18.08124            17.94646            15.36585            18.16176            17.68745            18.17529            17.72873            17.67122            17.60888            18.01540            18.16650            18.14612            17.95862            18.16253            17.52738            16.53866            17.80837            17.67702            16.80152            18.11431            17.71718            16.82638            17.51136            18.09285            18.21126            17.68526            17.51674            17.93690            17.53730            18.08895            17.73946            17.70639            18.07381            17.48280            17.74652            17.34484            17.67029            18.22508            17.96530            17.46352            17.99582            18.04236            18.00268            17.74036            18.07037            17.88142            17.94758            18.05165            18.15899            17.55460            17.77059            18.22975            17.56037            18.05768            17.65127            17.65790            17.66862            17.74877            18.17581            17.91198            17.73143            18.15797            18.08877            18.14638            17.79355            17.22659            17.55205            18.07949            17.77856            17.83424            18.04982            18.17836            17.75461            17.16793            17.60908            15.56474            18.00276            18.09181            17.71968            17.66021            16.70053            18.23281            14.97376            17.91587            18.07991            17.91183            17.12120            17.56630            17.94203            17.76017            17.54250            17.79474            15.41483            18.05015            18.07426            15.70364            16.04868            16.16686            16.29029            16.65561            17.58826            17.06109            17.57458            15.02305            17.63624            17.51608            18.04422            17.70904            18.29114            18.27527            17.55355            17.80576            17.40524            16.41831            17.83517            18.07400            17.86562            17.83095            17.58232            17.93051            15.80849            17.29237            18.27985            14.74773            15.92612            17.89765            17.18134            17.61701            17.90934            17.68206            18.10835            18.26306            18.03859            18.11140            17.96488            14.92720            15.07150            17.73030            14.95887            15.01053            18.20913            17.60090            15.12434            14.88206            17.66814            17.96958            18.18373            16.11401            18.00160            17.44121            16.23160            15.18172            14.84109            17.55996            17.81383            17.81728            16.35585            18.25781            15.76077            18.16423            17.56332            15.99524            17.87127            17.92060            17.81942            17.84857            17.12027            17.34345            14.80971            15.87171            17.62505            18.27536            17.74721            17.69430            17.91177            18.08729            17.87963            18.06454            17.58037            18.01686            17.22426            17.76126            17.64444            15.27439            15.05660            18.05321            17.59315            17.94428            17.93999            17.60721            17.60505            18.29330            14.91883            15.10725            17.97969            17.76005            17.85348            18.17530            15.16295            18.12567            17.45142            17.64513            18.21201            17.86531            17.86293            18.02739            18.28298            17.62204            17.92333            17.61849            17.59030            17.49585            17.59852            17.66812            16.91957            17.65774            16.78905            15.40301            18.00131            18.10995            17.89433            17.56228            17.80952            17.93822            17.65862            15.60531            18.12324            17.99022            15.61282            16.11224            15.47057            17.84433            18.24276            17.73527            16.92275            17.61365            18.10460            17.77769            18.21275            17.28948            17.63006            17.98197            18.25481            17.64071            18.14954            15.37208            18.15828            17.58541            16.59005            18.11771            18.00334            18.24207            17.63522            16.48105            16.26392            15.22478            18.28433            17.76612            17.54883            18.16200            16.86976            18.27395            17.83206            17.38028            17.82617            18.11224            17.55874            16.51146            17.88508            18.07288            17.93568            17.96849            16.38637            17.95627            18.25026            15.51013            18.19384            16.21990            15.52463            17.60669            16.32530            17.79248            17.90467            17.63694            17.87713            18.07656            17.64492            17.89279            17.53441            17.84443            16.71828            17.56965            15.45919            17.58945            16.98374            16.53565            17.55696            15.32079            16.20988            17.58146            15.24457            17.44548            17.61623            15.66172            17.63448            17.56214            17.89321            15.28661            16.34056            18.28687            17.89383            16.15748            17.72156            18.08679            18.21631            17.79070            18.23603            18.21894            18.08440            18.15924            17.54451            17.67893            18.25857            15.57309            17.78224            17.83438            17.32234            17.62333            17.80887            18.07050            15.79903            15.76059            17.89012            16.87987            17.58565            17.36171            18.16820            17.33872            17.82045            17.81519            17.87425            18.13293            15.66713            15.49040            16.93778            18.16963            17.57462            17.41767            15.70688            17.79465            17.78169            13.32628            27.46797            12.87021            16.21671            21.14854            20.59302            13.58692            15.71111            16.26328            17.21431            17.60423            15.51220            14.33951            16.29196            20.83971            16.45926            10.60541            15.46976            13.53282            19.69447            19.72196            20.14749            18.46444            45.69450            12.63711            20.11818             8.13564            13.04532            18.42124            14.46505            11.04601            16.90539            14.11082            13.61277            12.99675            14.05737            17.47291            13.62629            13.10879            17.06531            24.70688            13.57100            24.78420            17.61679            24.86562            20.94844            16.19936            17.89161            18.15773            21.18501            19.09385            17.63452            21.21934            17.14673            16.64969            11.88137            13.66642            17.12085            17.77917            15.64763            11.46685            19.87708            17.77358            22.06785            21.15662            12.59616            12.68621            27.35605            17.83750            13.68752            19.05802            13.64619            22.45628            11.78561            26.59013            47.09254            14.06864            14.81304            11.20305            12.26170             8.24577            14.63321            23.56823            12.98712            13.65756            17.15520            20.07728            11.98104            12.18522            15.25023            22.24511            10.84435            17.02842            17.31842            14.46145            12.34341            16.26523            12.42002            17.70225            16.92470            21.24931            13.63931            19.05424            15.04419            12.08584            17.75086            15.13214            21.01939            17.74682            11.13351            15.48740            10.86358            14.20504             8.04076            18.25985            21.73580            14.68175            10.83918            15.15731            18.78021            18.57332            11.70641             8.32697            16.43464             8.30610            22.42973            12.94462            14.04240            15.42389            17.01518            12.20609            16.30092            12.34589            21.50069            23.26935            15.51185            15.76998            15.97092            16.09307             8.24274            20.80316            16.90336            16.57017            15.49902             8.24400            19.40203            14.27132            13.04457             8.31996            16.94562            17.63336            15.07040            15.39296            19.92520            24.22420            16.88402            10.32945            13.69699            13.24019            16.25535            16.12171            16.94226            23.05047            10.95187            15.80991             9.98406            18.34237            11.42931            16.42984            15.22504            12.85711             7.78814            13.57481            12.90744            11.54117            12.05998            13.83285            24.59922            15.44745             9.38656            28.44342            18.29192            17.45415            16.24868            17.70507            16.66958            13.61906            15.00520            20.26681            17.58110             8.23744            19.15937            14.56525            16.22608            16.56784            13.62390            12.92607            13.86137            24.24052            13.91620             9.73793            18.84385            15.62397            20.04514            16.96877            14.99590            13.67454            16.04183            12.72369            15.53395            10.43219            17.87545            12.77176            22.56507            24.06877            14.86339            13.15614            10.16160            17.76958            20.22328            19.09488            18.20516            18.50454            19.32407            14.92228             9.51286            12.88753            16.72403            16.67266            19.99215            19.81188            12.15296            23.62239            24.02254            17.55758            14.63809            11.96215            15.79260            14.94134            15.35523            16.10390            13.68087            18.07543            23.04041            14.61850            16.59118            17.63902            22.78092            38.81864             8.54209            17.19894            17.89310            16.01880            17.75035            13.56750            16.10806            11.02893            10.91442            12.37730            19.89342            16.20738            23.75916            16.45425            23.71117            11.50484            13.81947            14.60010            15.45200            15.03968            19.63819            14.22275            19.15607            17.83516            18.77519            25.89943            22.56438            24.39026            10.55739            12.18138            18.42940             9.47813            23.56265            12.81169            22.93140            12.76664            19.67584            16.85457            21.05503            11.05742            22.49843            24.24789            13.41597            14.90378            12.05651            14.75122             9.63562            16.91682            17.81678            20.26752            17.60002             8.61386            19.19808            18.58553            12.61416            15.51511            10.41014            12.23784            16.20783            24.87126            13.86807            14.03290            15.01928            16.82889            12.08343            11.31300            22.96556            12.87837            12.85206            17.71928            17.55100            24.28681            14.32630            14.83562            46.81610            12.84893            31.64260            13.29438            19.88958            17.03350            13.67102            17.22006            14.20663            15.50248            12.44449            14.95902            13.41387            19.90447            21.14357            18.41810            19.64246            11.02247            18.25825            18.51286            12.81526            17.41542            13.52204            13.14143             9.92738            18.40167            19.28906             9.63657            16.01917             9.31025            16.60890            13.11845            19.42237            17.65679            19.84029            21.59981            18.45809            20.55703            17.72990            16.04908            10.78022            19.97885            16.81435            12.27476            16.38180            17.02581            16.56931            18.42441            12.38729            18.03042            14.47356            14.58778            13.24428            16.18655            20.32093             9.93776            17.78309            19.38071            17.64644            17.48199            14.39623            17.04342            28.50944            11.84164            12.32522            11.89353            19.83421            17.73816            17.44461            12.60289            22.62239            17.63609            18.33092            21.00766            12.22778            12.37868            18.28657            12.47495            17.28286            19.59633             7.88091            17.18958            17.64008            14.62733            14.93568            13.09230            16.89745            20.83298            19.70020            18.30313            10.61332            24.77155            15.40824            15.43067            15.43055             8.13413            18.96715            13.06955            11.98749            16.93917            37.71978            13.86471            16.90327            18.36132            20.06682            16.49243            16.84690            13.64374            14.70350            18.98469            16.69134            15.70306            14.61972            11.95578            17.73624            15.38660            15.39313            17.11168            13.24859            12.50613            18.57884            22.02101            18.24791            16.77659            14.96811            12.80540            18.47952            20.03552            13.83690            17.78814            21.18198            13.70211            16.30186            11.19939            13.75524            21.06733            17.09786            17.74332            11.45124            12.86893            13.06148            13.84534            15.93279             9.11233            17.07146            16.12804            25.19736            17.65424            14.34818            16.72367            20.51761             8.50201            18.39010            11.94125             7.88258            15.21876            17.69128             8.43020            11.18911            14.74125            13.60465            17.70287            17.84840            18.59526            16.86234             9.20845            11.43810            12.70360            19.78347            16.13289            16.01299            14.92263            11.85499            18.33970            20.77802            40.38869            15.67725            14.03114             8.34694            18.23463            18.36422            20.22105            18.49939            18.20211            40.84745            12.20324            12.33385            11.69802            15.46495            13.07803             7.86982            12.44777            20.03731            13.64897            17.16072            19.72969            14.08629             9.31705            17.62570             9.46278            20.95632            12.26067            11.36808             9.87408            19.38519             8.49105            21.19944            21.41833            26.96477            17.53474            17.67332             8.38111            17.97711            10.33279            12.45901            17.20868            20.40274            20.33922            19.99092            12.26833            19.27962            20.78434            16.57537            15.27984            50.67533            17.62284            11.27117            12.96732            13.65443            14.81459            15.35984            17.07397            18.35949            17.16714             7.84368            11.10666            13.17545            11.86473            14.06077            20.84558            12.33539            11.13216            17.05437            17.04674            15.75671            20.18709             7.53095            20.98631            13.71118            15.36835            17.64498            16.90721    