# vtk DataFile Version 3.0
Output from cR2
ASCII
DATASET UNSTRUCTURED_GRID
POINTS      10605 double
     0.00000   278.30000   0.
     1.00000   278.30000   0.
     2.00000   278.30000   0.
     3.00000   278.20000   0.
     3.90000   278.10000   0.
     4.90000   278.00000   0.
     5.90000   278.00000   0.
     7.00000   277.90000   0.
     7.90000   277.80000   0.
     8.90000   277.80000   0.
    10.10000   277.70000   0.
    11.00000   277.60000   0.
    11.90000   277.50000   0.
    13.00000   277.40000   0.
    13.90000   277.30000   0.
    14.90000   277.20000   0.
    15.90000   277.10000   0.
    17.00000   277.00000   0.
    17.90000   276.90000   0.
    18.90000   276.80000   0.
    19.90000   276.70000   0.
    21.00000   276.60000   0.
    21.90000   276.50000   0.
    23.00000   276.50000   0.
    24.00000   276.30000   0.
    25.00000   276.30000   0.
    26.00000   276.20000   0.
    27.00000   276.10000   0.
    28.00000   276.00000   0.
    28.90000   275.90000   0.
    29.90000   275.80000   0.
    30.90000   275.70000   0.
    31.90000   275.70000   0.
    32.90000   275.60000   0.
    33.90000   275.50000   0.
    35.00000   275.40000   0.
    35.80000   275.30000   0.
    36.60000   275.30000   0.
    37.70000   275.20000   0.
    38.60000   275.20000   0.
    39.60000   275.10000   0.
    40.60000   275.10000   0.
    41.70000   275.00000   0.
    42.70000   274.90000   0.
    43.70000   274.80000   0.
    44.60000   274.80000   0.
    45.70000   274.70000   0.
    46.60000   274.60000   0.
    47.80000   274.60000   0.
    48.70000   274.50000   0.
    49.70000   274.40000   0.
    50.70000   274.30000   0.
    51.70000   274.30000   0.
    52.70000   274.20000   0.
    53.60000   274.10000   0.
    54.60000   274.00000   0.
    55.70000   274.00000   0.
    56.60000   273.90000   0.
    57.60000   273.80000   0.
    58.60000   273.70000   0.
    59.70000   273.70000   0.
    60.60000   273.60000   0.
    61.70000   273.50000   0.
    62.60000   273.50000   0.
    63.60000   273.40000   0.
    64.70000   273.30000   0.
    65.70000   273.30000   0.
    66.70000   273.20000   0.
    67.70000   273.20000   0.
    68.60000   273.10000   0.
    69.70000   273.00000   0.
    70.50000   273.00000   0.
     2.03000   253.30000   0.
     5.53000   253.00000   0.
     9.02000   252.79000   0.
    12.52000   252.44000   0.
    16.02000   252.09000   0.
    19.51000   251.74000   0.
    23.01000   251.50000   0.
    26.51000   251.15000   0.
    30.00000   250.79000   0.
    33.50000   250.54000   0.
    37.00000   250.26000   0.
    40.50000   250.10000   0.
    43.99000   249.80000   0.
    47.49000   249.60000   0.
    50.99000   249.30000   0.
    54.48000   249.01000   0.
    57.98000   248.76000   0.
    61.48000   248.52000   0.
    64.97000   248.30000   0.
    68.47000   248.11000   0.
     0.25000   278.30000   0.
     0.50000   278.30000   0.
     0.75000   278.30000   0.
     1.25000   278.30000   0.
     1.50000   278.30000   0.
     1.75000   278.30000   0.
     2.25000   278.27500   0.
     2.50000   278.25000   0.
     2.75000   278.22500   0.
     3.22500   278.17500   0.
     3.45000   278.15000   0.
     3.67500   278.12500   0.
     4.15000   278.07500   0.
     4.40000   278.05000   0.
     4.65000   278.02500   0.
     5.15000   278.00000   0.
     5.40000   278.00000   0.
     5.65000   278.00000   0.
     6.12000   277.98000   0.
     6.34000   277.96000   0.
     6.56000   277.94000   0.
     6.78000   277.92000   0.
     7.22500   277.87500   0.
     7.45000   277.85000   0.
     7.67500   277.82500   0.
     8.15000   277.80000   0.
     8.40000   277.80000   0.
     8.65000   277.80000   0.
     9.14000   277.78000   0.
     9.38000   277.76000   0.
     9.62000   277.74000   0.
     9.86000   277.72000   0.
    10.32500   277.67500   0.
    10.55000   277.65000   0.
    10.77500   277.62500   0.
    11.22500   277.57500   0.
    11.45000   277.55000   0.
    11.67500   277.52500   0.
    12.12000   277.48000   0.
    12.34000   277.46000   0.
    12.56000   277.44000   0.
    12.78000   277.42000   0.
    13.22500   277.37500   0.
    13.45000   277.35000   0.
    13.67500   277.32500   0.
    14.15000   277.27500   0.
    14.40000   277.25000   0.
    14.65000   277.22500   0.
    15.15000   277.17500   0.
    15.40000   277.15000   0.
    15.65000   277.12500   0.
    16.12000   277.08000   0.
    16.34000   277.06000   0.
    16.56000   277.04000   0.
    16.78000   277.02000   0.
    17.22500   276.97500   0.
    17.45000   276.95000   0.
    17.67500   276.92500   0.
    18.15000   276.87500   0.
    18.40000   276.85000   0.
    18.65000   276.82500   0.
    19.15000   276.77500   0.
    19.40000   276.75000   0.
    19.65000   276.72500   0.
    20.12000   276.68000   0.
    20.34000   276.66000   0.
    20.56000   276.64000   0.
    20.78000   276.62000   0.
    21.22500   276.57500   0.
    21.45000   276.55000   0.
    21.67500   276.52500   0.
    22.12000   276.50000   0.
    22.34000   276.50000   0.
    22.56000   276.50000   0.
    22.78000   276.50000   0.
    23.25000   276.45000   0.
    23.50000   276.40000   0.
    23.75000   276.35000   0.
    24.25000   276.30000   0.
    24.50000   276.30000   0.
    24.75000   276.30000   0.
    25.25000   276.27500   0.
    25.50000   276.25000   0.
    25.75000   276.22500   0.
    26.25000   276.17500   0.
    26.50000   276.15000   0.
    26.75000   276.12500   0.
    27.25000   276.07500   0.
    27.50000   276.05000   0.
    27.75000   276.02500   0.
    28.22500   275.97500   0.
    28.45000   275.95000   0.
    28.67500   275.92500   0.
    29.15000   275.87500   0.
    29.40000   275.85000   0.
    29.65000   275.82500   0.
    30.15000   275.77500   0.
    30.40000   275.75000   0.
    30.65000   275.72500   0.
    31.15000   275.70000   0.
    31.40000   275.70000   0.
    31.65000   275.70000   0.
    32.15000   275.67500   0.
    32.40000   275.65000   0.
    32.65000   275.62500   0.
    33.15000   275.57500   0.
    33.40000   275.55000   0.
    33.65000   275.52500   0.
    34.12000   275.48000   0.
    34.34000   275.46000   0.
    34.56000   275.44000   0.
    34.78000   275.42000   0.
    35.20000   275.37500   0.
    35.40000   275.35000   0.
    35.60000   275.32500   0.
    36.00000   275.30000   0.
    36.20000   275.30000   0.
    36.40000   275.30000   0.
    36.82000   275.28000   0.
    37.04000   275.26000   0.
    37.26000   275.24000   0.
    37.48000   275.22000   0.
    37.92500   275.20000   0.
    38.15000   275.20000   0.
    38.37500   275.20000   0.
    38.85000   275.17500   0.
    39.10000   275.15000   0.
    39.35000   275.12500   0.
    39.85000   275.10000   0.
    40.10000   275.10000   0.
    40.35000   275.10000   0.
    40.82000   275.08000   0.
    41.04000   275.06000   0.
    41.26000   275.04000   0.
    41.48000   275.02000   0.
    41.95000   274.97500   0.
    42.20000   274.95000   0.
    42.45000   274.92500   0.
    42.95000   274.87500   0.
    43.20000   274.85000   0.
    43.45000   274.82500   0.
    43.92500   274.80000   0.
    44.15000   274.80000   0.
    44.37500   274.80000   0.
    44.82000   274.78000   0.
    45.04000   274.76000   0.
    45.26000   274.74000   0.
    45.48000   274.72000   0.
    45.92500   274.67500   0.
    46.15000   274.65000   0.
    46.37500   274.62500   0.
    46.84000   274.60000   0.
    47.08000   274.60000   0.
    47.32000   274.60000   0.
    47.56000   274.60000   0.
    48.02500   274.57500   0.
    48.25000   274.55000   0.
    48.47500   274.52500   0.
    48.95000   274.47500   0.
    49.20000   274.45000   0.
    49.45000   274.42500   0.
    49.95000   274.37500   0.
    50.20000   274.35000   0.
    50.45000   274.32500   0.
    50.95000   274.30000   0.
    51.20000   274.30000   0.
    51.45000   274.30000   0.
    51.95000   274.27500   0.
    52.20000   274.25000   0.
    52.45000   274.22500   0.
    52.92500   274.17500   0.
    53.15000   274.15000   0.
    53.37500   274.12500   0.
    53.85000   274.07500   0.
    54.10000   274.05000   0.
    54.35000   274.02500   0.
    54.82000   274.00000   0.
    55.04000   274.00000   0.
    55.26000   274.00000   0.
    55.48000   274.00000   0.
    55.92500   273.97500   0.
    56.15000   273.95000   0.
    56.37500   273.92500   0.
    56.85000   273.87500   0.
    57.10000   273.85000   0.
    57.35000   273.82500   0.
    57.85000   273.77500   0.
    58.10000   273.75000   0.
    58.35000   273.72500   0.
    58.82000   273.70000   0.
    59.04000   273.70000   0.
    59.26000   273.70000   0.
    59.48000   273.70000   0.
    59.92500   273.67500   0.
    60.15000   273.65000   0.
    60.37500   273.62500   0.
    60.82000   273.58000   0.
    61.04000   273.56000   0.
    61.26000   273.54000   0.
    61.48000   273.52000   0.
    61.92500   273.50000   0.
    62.15000   273.50000   0.
    62.37500   273.50000   0.
    62.85000   273.47500   0.
    63.10000   273.45000   0.
    63.35000   273.42500   0.
    63.82000   273.38000   0.
    64.04000   273.36000   0.
    64.26000   273.34000   0.
    64.48000   273.32000   0.
    64.95000   273.30000   0.
    65.20000   273.30000   0.
    65.45000   273.30000   0.
    65.95000   273.27500   0.
    66.20000   273.25000   0.
    66.45000   273.22500   0.
    66.95000   273.20000   0.
    67.20000   273.20000   0.
    67.45000   273.20000   0.
    67.92500   273.17500   0.
    68.15000   273.15000   0.
    68.37500   273.12500   0.
    68.82000   273.08000   0.
    69.04000   273.06000   0.
    69.26000   273.04000   0.
    69.48000   273.02000   0.
    69.90000   273.00000   0.
    70.10000   273.00000   0.
    70.30000   273.00000   0.
     0.28000   253.30000   0.
     1.15500   253.30000   0.
     2.90500   253.22500   0.
     3.78000   253.15000   0.
     4.65500   253.07500   0.
     6.40250   252.94750   0.
     7.27500   252.89500   0.
     8.14750   252.84250   0.
     9.89500   252.70250   0.
[...]
POINT_DATA     10605
CELL_DATA     20697
SCALARS Magnitude(ohm.m) double 1
LOOKUP_TABLE default
            16.04371            17.21474            17.07055            15.19734            17.03028            16.30406            16.18997            15.88005            15.88802            17.22523            14.48551            15.79502            17.26932            15.31578            16.52003            17.19136            15.26865            16.89562            16.03609            17.03022            15.68759            14.66545            16.86509            14.61994            17.16067            17.22677            15.08682            15.38798            16.82378            16.55328            13.03157            16.66865            13.47386            15.63300            15.24660            15.78825            16.13222            15.55435            15.07749            17.12409            16.74290            16.69113            15.94461            16.96611            15.18268            15.29536            14.56712            16.23663            13.85608            14.44734            17.06040            13.42213            15.56864            16.92326            15.34924            15.58467            16.06031            16.70449            17.06977            15.35041            16.47406            17.06150            16.73129            16.48416            16.33456            15.27946            15.89381            16.41591            16.80222            15.63986            16.75222            16.12082            15.56060            16.40607            16.28397            16.88757            15.14083            16.11729            17.41706            17.27201            14.71920            15.23924            17.19276            15.13808            15.73915            15.16675            17.15851            16.25685            15.80023            16.02063            16.87256            15.17950            16.60285            15.94314            15.12554            16.39709            15.12610            15.09875            15.19198            16.47051            16.86169            14.79016            16.97016            15.48855            16.82272            15.63655            15.73363            15.72539            15.36215            15.08552            16.20711            16.81408            15.63026            15.19458            17.21056            16.08874            16.38503            15.03111            16.35728            15.43124            17.12704            15.58395            15.23881            16.66428            16.46628            16.90088            16.64934            14.58980            16.97686            16.00110            15.33679            16.81371            15.67392            16.26128            16.64601            16.16725            15.39501            16.58878            13.92400            15.31022            16.55606            16.69505            16.90091            15.73617            16.21242            16.02179            15.40140            16.71231            17.33969            15.61184            16.63373            16.48887            15.30482            17.11543            16.74794            15.42063            16.93289            15.87474            14.50793            16.55460            14.64298            15.22970            15.83330            16.50768            16.93452            16.69543            15.43986            17.23875            16.81929            15.12714            16.05176            15.18183            15.32885            16.50630            15.92587            16.85372            16.92393            16.42307            16.26199            16.15844            15.44034            15.81509            15.47108            15.25014            16.03802            16.98309            16.41789            16.89236            16.40887            16.08630            15.36315            15.48346            15.25168            15.69923            14.97558            16.03742            16.56427            16.77417            15.99300            16.25048            15.23192            16.87585            16.60887            15.46760            15.55147            14.73703            17.22100            17.54012            17.26002            13.29726            14.19347            17.59257            12.59386            17.60045            16.73457            15.74013            12.58604            17.64491            12.81677            17.68635            17.46920            16.91860            15.71629            15.77673            17.64979            13.22647            17.40321            15.86125            12.77413            13.53314            17.35376            13.15872            17.67942            14.09442            12.73583            16.92207            15.18347            12.86452            13.89147            14.63469            13.09090            12.62504            12.60712            14.52248            15.02964            13.79296            14.40506            16.67980            12.97796            12.67447            12.64653            14.88463            13.70241            13.03305            16.23148            12.91849            16.30209            14.29614            17.64697            16.82616            17.11662            17.33676            13.37190            17.53718            15.82480            17.26619            15.05891            17.46414            13.25590            17.59124            14.37400            17.29660            17.58963            15.06795            14.84607            15.73583            13.99452            12.79443            14.74954            17.51386            14.13688            16.36570            17.37012            16.79531            12.83879            13.61733            17.63118            16.74247            13.18765            12.75440            13.93661            15.41910            13.32797            14.80349            15.43174            13.12088            17.51787            15.09009            17.45617            17.39457            14.57350            13.83542            13.00445            17.09767            14.45664            13.05522            12.88923            13.74078            14.94145            17.14153            15.54399            13.33842            14.23727            14.03883            14.34389            12.94481            15.53325            16.34349            14.67672            15.53869            13.30516            15.71696            14.88865            16.97525            15.33601            14.77230            13.65366            17.42849            13.81039            16.61609            14.87001            13.56981            16.39490            15.01924            16.33073            15.97305            14.06555            16.22998            15.10920            15.49831            16.56917            15.08042            17.62357            17.63878            13.48674            14.25606            17.14856            13.40451            13.99599            13.01120            17.13046            12.71970            16.34188            13.45061            15.48643            16.29711            16.12595            12.69242            17.12749            17.07935            13.23564            15.93641            16.51004            16.31406            13.26137            15.82170            17.67471            16.30191            15.28004            16.58951            15.00937            16.53309            16.50119            15.37898            16.73027            14.03525            16.41157            16.89202            14.92282            16.46892            16.61755            12.70428            15.62096            16.01802            13.17237            15.19846            15.51505            13.51450            16.25175            16.22878            17.43524            17.15292            16.38727            15.14056            13.58758            15.61051            15.93881            13.38672            13.20166            14.12515            17.15817            13.63002            13.75517            17.25725            15.89462            17.44778            14.16571            17.16049            16.06407            14.43308            16.11789            14.11601            15.48506            15.60989            15.05676            16.43972            16.14807            14.31662            13.71428            17.40680            15.14900            13.13766            15.97504            15.91676            14.36650            17.40167            17.36658            15.39022            16.58705            17.41650            13.55754            16.06661            17.30585            15.67225            17.35933            17.30886            15.96270            17.17479            16.70284            14.31898            16.63727            14.21602            17.38085            13.11479            14.25792            14.21289            13.55704            14.02810            13.66500            16.57230            13.97573            14.15636            14.07249            16.57682            13.16571            13.29125            17.25863             9.95961            49.86066            12.75684            13.98811            14.73533             9.89753            35.83244            27.49356            19.74435            18.90264            22.32050            62.03977            73.61622            10.87738            13.96877            12.48947            12.25457            15.35184            15.04213            11.54967             6.45458            42.47205            13.24312            29.37925            15.11725            11.09880            10.67985            39.18362            11.17725            11.16583            16.33282            25.65455            20.95705            10.09809            16.93721            11.59400            12.42123            17.06795            26.04057            25.22959            11.14427            24.49604            10.56788            12.54066            43.85108            11.23173            16.82224            11.65997            39.97763            12.44673            10.41879             8.61467            45.26103            23.46966            31.28757            12.18228            11.66918            12.45823            77.61420            14.69244            11.51458            13.70464            15.56491            10.68954            17.58371            13.52260            11.10746             8.36512            46.44355            17.65839            11.38122            16.87759            20.96226            12.01812            48.74352            24.96946            65.78995            18.69712            17.54330            23.58265            17.45079            25.53092            11.22935            26.59734            10.87234            18.15115            70.48231            18.72750            10.09510            26.34185            14.65008             9.83498             9.44716            12.63585            13.39488            12.47142            26.89112             9.92607            10.21702            17.26756            29.02434            55.11573            13.88976            16.12041            13.65588            15.22532            11.76779            26.09881            11.45698            12.49828             6.49079             9.70132            23.41823            15.73331            12.39604            15.70909            27.06846            15.17757            11.65257            11.59071            76.12507            24.45786            13.84315            10.81688            11.67778            37.97006            12.41253            10.01485            17.77307             6.43956            13.13961            24.27707             9.91065            15.11952            17.20388            11.67902            10.80596            20.17943            13.15838            27.60933            20.82777            17.32144             9.46369            11.32656            28.50727            18.84785            16.08996            11.83885            13.85013            18.35241             9.61813            33.24348            40.54120            10.32623            10.63341            20.55537             8.66227            65.53433            12.11083            39.51451            10.77025             6.52689            14.88016             9.80287            15.32618            11.58668            34.29485            10.23607            13.85760            13.39789            14.13050            26.49239            38.92457            12.42533            12.80058            13.82420             9.88784             8.75312            20.18476             9.45519            32.12620            17.45356            16.40706            13.85399            14.47657            29.56240            10.69577            31.03018            18.76687            14.32939            30.30847            18.96236            12.56779            59.99734            11.66701            13.19302            23.33944             8.90793            16.10177            42.22288            32.73295            18.78565            15.57404            22.08651            18.67319            13.56219            12.27615            14.84595            14.63371            18.16736            18.59180            13.53926            16.55427            29.70220            17.88717            16.54422            13.63259            29.29750            21.43721            18.43186            17.77266            13.58581            18.76470            27.92979            13.37588             9.61241            48.13323            11.64017            12.45691             8.74313            14.88344            19.03765            39.88576            25.98804            21.96287            17.41187            39.20898            36.93093            18.61631            17.53744            12.15490            10.87768            16.75735            31.32730            20.86178            23.96983            10.70365            11.36349            15.50060            16.69135            18.66735            14.29761             8.79126            12.19678            16.95290            10.14544            30.28208            42.06615            27.78136            17.32343            40.27286            29.04957            13.35089            13.31314            18.27204            10.91867            13.93221            10.22002            11.57686            14.01224            12.55386             8.10302            10.87969            12.41960            15.62097            14.03320            11.53862            13.32456            13.01786            13.23772            43.52188            18.23086            11.50289            24.91763            12.86386            57.92393            11.29180            10.70746            29.73914            17.11503            15.42928            17.90441            13.70821            10.34968            28.39840            26.14830            11.23997            10.29746            29.13069            13.60610            21.33836            13.12100            31.78809            12.46388             9.94845            14.57496            11.86137            10.90060            30.44329            11.97363            30.42361            10.46478            18.99348            49.17636            18.44027             8.13269             8.67480            11.19206            12.17845            13.78838            11.72624            28.60172            16.69520            16.65286            11.24794            18.09104            30.62805            11.28813            10.66958             9.70055            18.01974            11.29756            12.59568            25.30433            49.09181            26.25099            18.07234            14.60895            17.78458            23.74445            69.89386            40.02130            11.90662            18.59848            13.31722            20.33348            11.75932            15.70349            13.34982            11.48155            23.06122            23.70273            25.17689             6.44112            26.21994            13.60088            23.09730            21.51567            21.34438             8.72558            11.30476            31.21714            13.42677            50.51659            13.75717            20.44680            55.49724            28.80048            10.94845            12.88425            11.29536            21.28906             9.97463            23.88283            42.88809            11.08942            11.20445            29.19745            10.41010            12.51773            23.62554            30.99831            16.00258            12.51173            12.77877            12.29935            17.59985            25.16862            15.33476            11.38590             9.92514            11.24961            11.14183            16.76357            11.78044            30.93520            12.24182            12.31579            13.28806            11.39099            38.32678            18.30141            13.27021            36.14445            10.96221            42.94516             9.12083            21.19229            11.30099            26.04891             9.83327            15.97558            10.35535            23.17916            14.33588            13.63134            18.44147            12.13240             9.08136             9.26786            10.26742            11.58084            13.97859            13.76308            12.48249            12.14041            25.97894            11.55052             9.92700            17.38316            53.77215            19.26077            10.14252             7.59900            10.07718            16.47245            14.67209             9.66531            12.10031            16.26761            12.41520            12.37417            10.25062            18.38664            11.86378            13.52062            10.15522            12.19971            10.32209            42.41501            11.49315            11.39118            10.98927            32.71370            12.55347            30.74503            15.55089            12.16548            38.76899            17.81959            11.40091            18.29863            26.75881            11.02188            24.47461            10.51837            14.06914            17.48713            13.91341            11.09320            13.78115            12.12157            24.99613            19.12996            12.40055            12.07269            24.89805            16.30363            14.58920             6.75176             9.70479            17.37070            20.75575            12.05822            18.20117            12.55786            13.87869            42.61846             9.81832            11.28985             9.81912            26.61863            12.06628            18.88328            13.03874            18.08560            21.38952            11.65086            12.62805            15.36913             9.71991            11.02607            12.86311            12.14868            13.35428            12.51433            15.43161            22.43944            10.38510            17.30733            17.28752            12.34273            10.04875            14.89008            14.16914            13.20669            18.25918            16.88129            11.38826            62.56703            20.10537            11.74136            31.61314            15.79744            13.42673            18.96251            27.94972            13.76629            41.52366             8.83897            11.90497            15.12355            11.87633             9.52828             8.75516            12.53929            16.57056            11.50795    