# vtk DataFile Version 3.0
Output from cR2
ASCII
DATASET UNSTRUCTURED_GRID
POINTS       7746 double
     0.00000   272.40000   0.
     1.00000   272.40000   0.
     2.00000   272.40000   0.
     3.00000   272.40000   0.
     4.00000   272.40000   0.
     5.00000   272.30000   0.
     5.90000   272.30000   0.
     7.00000   272.30000   0.
     7.90000   272.30000   0.
     8.90000   272.30000   0.
     9.90000   272.40000   0.
    10.90000   272.40000   0.
    12.00000   272.40000   0.
    13.00000   272.40000   0.
    14.00000   272.50000   0.
    15.00000   272.40000   0.
    16.00000   272.40000   0.
    17.00000   272.40000   0.
    17.90000   272.40000   0.
    18.90000   272.40000   0.
    19.90000   272.30000   0.
    20.90000   272.30000   0.
    21.90000   272.40000   0.
    22.80000   272.50000   0.
    23.90000   272.70000   0.
    24.90000   272.80000   0.
    25.90000   272.80000   0.
    26.70000   272.90000   0.
    27.80000   272.90000   0.
    28.60000   273.00000   0.
    29.80000   273.20000   0.
    30.80000   273.40000   0.
    31.80000   273.50000   0.
    32.90000   273.60000   0.
    33.80000   273.70000   0.
    34.70000   273.80000   0.
    35.90000   273.80000   0.
    36.90000   273.90000   0.
    37.90000   274.00000   0.
    38.90000   274.10000   0.
    39.90000   274.30000   0.
    40.80000   274.40000   0.
    41.90000   274.60000   0.
    42.80000   274.70000   0.
    43.80000   274.80000   0.
    44.80000   274.90000   0.
    45.80000   275.10000   0.
    46.80000   275.20000   0.
    47.80000   275.40000   0.
    48.80000   275.50000   0.
    49.80000   275.60000   0.
    50.80000   275.70000   0.
    51.70000   275.90000   0.
    52.70000   276.00000   0.
    53.70000   276.10000   0.
    54.70000   276.20000   0.
    55.70000   276.40000   0.
    56.70000   276.50000   0.
    57.70000   276.60000   0.
    58.70000   276.80000   0.
    59.70000   276.90000   0.
    60.60000   277.00000   0.
    61.60000   277.10000   0.
    62.60000   277.30000   0.
    63.60000   277.40000   0.
    64.60000   277.50000   0.
    65.60000   277.60000   0.
    66.60000   277.80000   0.
    67.60000   277.90000   0.
    68.50000   278.00000   0.
    69.50000   278.10000   0.
    70.60000   278.20000   0.
     2.03000   247.40000   0.
     5.53000   247.30000   0.
     9.04000   247.31000   0.
    12.54000   247.40000   0.
    16.04000   247.40000   0.
    19.54000   247.34000   0.
    23.04000   247.54000   0.
    26.55000   247.88000   0.
    30.05000   248.25000   0.
    33.55000   248.67000   0.
    37.05000   248.92000   0.
    40.55000   249.37000   0.
    44.05000   249.83000   0.
    47.56000   250.35000   0.
    51.06000   250.76000   0.
    54.56000   251.19000   0.
    58.06000   251.67000   0.
    61.56000   252.10000   0.
    65.07000   252.55000   0.
    68.57000   253.01000   0.
     0.25000   272.40000   0.
     0.50000   272.40000   0.
     0.75000   272.40000   0.
     1.25000   272.40000   0.
     1.50000   272.40000   0.
     1.75000   272.40000   0.
     2.25000   272.40000   0.
     2.50000   272.40000   0.
     2.75000   272.40000   0.
     3.25000   272.40000   0.
     3.50000   272.40000   0.
     3.75000   272.40000   0.
     4.25000   272.37500   0.
     4.50000   272.35000   0.
     4.75000   272.32500   0.
     5.22500   272.30000   0.
     5.45000   272.30000   0.
     5.67500   272.30000   0.
     6.12000   272.30000   0.
     6.34000   272.30000   0.
     6.56000   272.30000   0.
     6.78000   272.30000   0.
     7.22500   272.30000   0.
     7.45000   272.30000   0.
     7.67500   272.30000   0.
     8.15000   272.30000   0.
     8.40000   272.30000   0.
     8.65000   272.30000   0.
     9.15000   272.32500   0.
     9.40000   272.35000   0.
     9.65000   272.37500   0.
    10.15000   272.40000   0.
    10.40000   272.40000   0.
    10.65000   272.40000   0.
    11.12000   272.40000   0.
    11.34000   272.40000   0.
    11.56000   272.40000   0.
    11.78000   272.40000   0.
    12.25000   272.40000   0.
    12.50000   272.40000   0.
    12.75000   272.40000   0.
    13.25000   272.42500   0.
    13.50000   272.45000   0.
    13.75000   272.47500   0.
    14.25000   272.47500   0.
    14.50000   272.45000   0.
    14.75000   272.42500   0.
    15.25000   272.40000   0.
    15.50000   272.40000   0.
    15.75000   272.40000   0.
    16.25000   272.40000   0.
    16.50000   272.40000   0.
    16.75000   272.40000   0.
    17.22500   272.40000   0.
    17.45000   272.40000   0.
    17.67500   272.40000   0.
    18.15000   272.40000   0.
    18.40000   272.40000   0.
    18.65000   272.40000   0.
    19.15000   272.37500   0.
    19.40000   272.35000   0.
    19.65000   272.32500   0.
    20.15000   272.30000   0.
    20.40000   272.30000   0.
    20.65000   272.30000   0.
    21.15000   272.32500   0.
    21.40000   272.35000   0.
    21.65000   272.37500   0.
    22.12500   272.42500   0.
    22.35000   272.45000   0.
    22.57500   272.47500   0.
    23.02000   272.54000   0.
    23.24000   272.58000   0.
    23.46000   272.62000   0.
    23.68000   272.66000   0.
    24.15000   272.72500   0.
    24.40000   272.75000   0.
    24.65000   272.77500   0.
    25.15000   272.80000   0.
    25.40000   272.80000   0.
    25.65000   272.80000   0.
    26.10000   272.82500   0.
    26.30000   272.85000   0.
    26.50000   272.87500   0.
    26.92000   272.90000   0.
    27.14000   272.90000   0.
    27.36000   272.90000   0.
    27.58000   272.90000   0.
    28.00000   272.92500   0.
    28.20000   272.95000   0.
    28.40000   272.97500   0.
    28.84000   273.04000   0.
    29.08000   273.08000   0.
    29.32000   273.12000   0.
    29.56000   273.16000   0.
    30.05000   273.25000   0.
    30.30000   273.30000   0.
    30.55000   273.35000   0.
    31.05000   273.42500   0.
    31.30000   273.45000   0.
    31.55000   273.47500   0.
    32.02000   273.52000   0.
    32.24000   273.54000   0.
    32.46000   273.56000   0.
    32.68000   273.58000   0.
    33.12500   273.62500   0.
    33.35000   273.65000   0.
    33.57500   273.67500   0.
    34.02500   273.72500   0.
    34.25000   273.75000   0.
    34.47500   273.77500   0.
    34.94000   273.80000   0.
    35.18000   273.80000   0.
    35.42000   273.80000   0.
    35.66000   273.80000   0.
    36.15000   273.82500   0.
    36.40000   273.85000   0.
    36.65000   273.87500   0.
    37.15000   273.92500   0.
    37.40000   273.95000   0.
    37.65000   273.97500   0.
    38.15000   274.02500   0.
    38.40000   274.05000   0.
    38.65000   274.07500   0.
    39.15000   274.15000   0.
    39.40000   274.20000   0.
    39.65000   274.25000   0.
    40.12500   274.32500   0.
    40.35000   274.35000   0.
    40.57500   274.37500   0.
    41.02000   274.44000   0.
    41.24000   274.48000   0.
    41.46000   274.52000   0.
    41.68000   274.56000   0.
    42.12500   274.62500   0.
    42.35000   274.65000   0.
    42.57500   274.67500   0.
    43.05000   274.72500   0.
    43.30000   274.75000   0.
    43.55000   274.77500   0.
    44.05000   274.82500   0.
    44.30000   274.85000   0.
    44.55000   274.87500   0.
    45.05000   274.95000   0.
    45.30000   275.00000   0.
    45.55000   275.05000   0.
    46.05000   275.12500   0.
    46.30000   275.15000   0.
    46.55000   275.17500   0.
    47.05000   275.25000   0.
    47.30000   275.30000   0.
    47.55000   275.35000   0.
    48.05000   275.42500   0.
    48.30000   275.45000   0.
    48.55000   275.47500   0.
    49.05000   275.52500   0.
    49.30000   275.55000   0.
    49.55000   275.57500   0.
    50.05000   275.62500   0.
    50.30000   275.65000   0.
    50.55000   275.67500   0.
    51.02500   275.75000   0.
    51.25000   275.80000   0.
    51.47500   275.85000   0.
    51.95000   275.92500   0.
    52.20000   275.95000   0.
    52.45000   275.97500   0.
    52.95000   276.02500   0.
    53.20000   276.05000   0.
    53.45000   276.07500   0.
    53.95000   276.12500   0.
    54.20000   276.15000   0.
    54.45000   276.17500   0.
    54.95000   276.25000   0.
    55.20000   276.30000   0.
    55.45000   276.35000   0.
    55.95000   276.42500   0.
    56.20000   276.45000   0.
    56.45000   276.47500   0.
    56.95000   276.52500   0.
    57.20000   276.55000   0.
    57.45000   276.57500   0.
    57.95000   276.65000   0.
    58.20000   276.70000   0.
    58.45000   276.75000   0.
    58.95000   276.82500   0.
    59.20000   276.85000   0.
    59.45000   276.87500   0.
    59.92500   276.92500   0.
    60.15000   276.95000   0.
    60.37500   276.97500   0.
    60.85000   277.02500   0.
    61.10000   277.05000   0.
    61.35000   277.07500   0.
    61.85000   277.15000   0.
    62.10000   277.20000   0.
    62.35000   277.25000   0.
    62.85000   277.32500   0.
    63.10000   277.35000   0.
    63.35000   277.37500   0.
    63.85000   277.42500   0.
    64.10000   277.45000   0.
    64.35000   277.47500   0.
    64.85000   277.52500   0.
    65.10000   277.55000   0.
    65.35000   277.57500   0.
    65.85000   277.65000   0.
    66.10000   277.70000   0.
    66.35000   277.75000   0.
    66.85000   277.82500   0.
    67.10000   277.85000   0.
    67.35000   277.87500   0.
    67.82500   277.92500   0.
    68.05000   277.95000   0.
    68.27500   277.97500   0.
    68.75000   278.02500   0.
    69.00000   278.05000   0.
    69.25000   278.07500   0.
    69.72000   278.12000   0.
    69.94000   278.14000   0.
    70.16000   278.16000   0.
    70.38000   278.18000   0.
    -0.30333   247.40000   0.
     0.86333   247.40000   0.
     3.19667   247.36667   0.
     4.36333   247.33333   0.
     6.70000   247.30333   0.
     7.87000   247.30667   0.
    10.20667   247.34000   0.
    11.37333   247.37000   0.
    13.70667   247.40000   0.
    14.87333   247.40000   0.
    17.20667   247.38000   0.
    18.37333   247.36000   0.
    20.70667   247.40667   0.
    21.87333   247.47333   0.
    24.21000   247.65333   0.
    25.38000   247.76667   0.
[...]
POINT_DATA      7746
CELL_DATA     15026
SCALARS Magnitude(ohm.m) double 1
LOOKUP_TABLE default
            21.98201            22.74830            22.48760            20.19134            21.92187            21.19142            22.18323            22.65707            20.56767            21.36707            21.88546            22.39176            19.60289            19.94174            21.36430            22.41274            19.31670            20.17793            19.35503            17.76479            22.21640            22.50954            21.18903            21.87587            20.35284            20.32935            20.54965            22.10003            18.08420            20.85359            22.21266            20.28410            19.08805            20.68715            20.80732            20.10035            20.68339            22.20112            20.52107            19.08303            21.96478            22.30156            22.05420            22.05884            21.35888            19.06199            20.65349            20.99024            20.88593            19.94336            16.29815            19.50670            20.99540            22.15608            22.10107            22.11993            19.86860            22.42406            22.48007            21.18161            22.72722            22.30970            20.82406            21.13472            21.27864            21.54080            18.83170            19.32323            22.12597            19.41204            20.95443            21.89931            21.11388            19.19050            19.60845            20.42351            20.02602            14.95983            21.15205            20.78650            18.45884            19.18030            21.54297            20.71745            22.39849            16.40170            14.40614            20.11681            21.68580            22.96062            18.89654            20.26839            12.91437            13.37825            19.86500            19.44165            20.64140            21.92632            21.87666            22.83414            14.00659            20.99307            21.37121            19.50933            13.13169            22.14980            16.12482            17.01556            18.91149            21.24772            15.83998            22.19453            19.73530            22.60543            22.92733            15.33781            13.66472            17.66070            12.61258            21.80182            12.49644            22.76815            18.30229            21.65735            22.29187            22.99908            20.38195            21.75319            19.77798            19.90697            14.23531            22.88302            21.87073            22.95488            13.03919            21.23082            20.48693            16.71343            21.56263            13.53606            13.27699            20.95475            22.64979            22.12538            22.71934            19.18832            13.85214            21.56515            18.93704            17.33830            15.60336            21.35619            12.74626            18.60147            17.98106            22.92180            22.80002            22.33723            21.41105            18.70278            22.45392            20.52839            19.68263            22.54830            17.46037            19.63063            19.50217            15.34419            22.29705            19.04062            22.60880            15.11894            19.74457            18.82657            14.65678            21.42998            22.52288            19.42289            16.87739            14.85613            21.52058            21.01865            20.33864            17.17076            21.62381            22.36725            19.50525            21.73013            21.71972            18.37146            22.32754            21.37515            19.68142            21.61639            15.75935            18.90000            18.66843            19.06403            19.27403            15.62489            23.35091            28.95169            14.84755            15.14986            10.29660            27.05203            16.24387            23.65158            29.75305            26.57640            26.25564            11.46227            25.58340            16.51839            12.82246            12.11688            23.47213            14.47991            23.21401            10.09653            14.31441            13.88562            26.32709             8.91953            16.94047            15.60748            11.28990            27.55155            29.84206            14.27500            15.90650            14.18797            16.38712            26.05062            12.09156            44.86365            12.64529             8.44791            36.56598            11.68931            11.67672            27.91767            14.11437            24.54371            11.28215            28.48052            14.14882            28.29632            14.86040            23.49609            13.31040            12.19964            26.31171             8.89994            10.82999            23.13956            13.34968            14.30452            28.95906            11.87212            26.35030            12.48268            21.34323            22.89239            25.24412            25.74137            11.26814            14.13207            14.70180            15.25441            10.37990            12.93391            25.80071            27.82076            16.27126            23.62020            12.65839            32.46003            12.27954            10.92440            11.76699            17.81095            11.40584            11.97568            12.75973            15.27424            21.87197            26.21717            16.52881            19.72289            12.61421            15.37559            10.41339            13.42034            10.33189            27.88122             8.84489            10.14722            23.27952            35.49309            13.07116            17.63634            15.37386            32.24971            17.62938            18.96497            22.01637            10.84626            27.60224            13.96459            29.66360            11.08754            19.38676             9.80173            15.41094            28.47920            15.26884             8.55325            49.17584            10.40057            11.33153            12.22935            17.27937            10.54939             8.86682            10.81730            13.68879            11.50092            17.84690            10.94049            27.53582             6.42893            22.01187            13.62747            21.46971            27.21442            11.44375            10.87589            19.87669            23.66014            22.19671            19.53067            12.05421            14.51585            23.32642            14.37336            13.89148            25.53033             9.49338            14.83557            12.66161            11.94816            27.14745            19.44906            22.91811            18.04691            12.50878            26.21576             9.69720            25.55125            10.92315            13.79563            17.95427            22.53154            13.43830            21.50985            22.44873            25.63338            13.36735            20.81100            11.56428            26.02451            14.48360            12.53902            12.32112            26.09474            11.98954            17.76105            12.53106            12.04797            21.87519             8.71878            27.28988            15.27501            27.21485            23.33131            19.04345            11.31140            19.13101            17.36522            14.16826             8.67961            11.89705            13.64140            13.23282            19.48095            13.75353            20.75863            17.64555            37.53924            27.57038            15.41256             9.00509             9.57668            26.70594            12.67585            26.85215            15.63725             9.76402            13.19312            25.31511            13.91617            11.06607            26.32217            25.80828            12.34024            15.45246            20.39606            20.93811            15.71904            13.37195            16.96120            25.72579            22.31959            23.60070            27.17714            15.38499            23.73924            27.07632            13.58246            42.93212            25.79950             8.89243            18.05493            14.93222            17.04841            16.35305            12.65209            13.32779            11.93222            14.87275             9.08351            11.62636            27.03440            19.26707            22.01029            12.07236            24.84993            26.34327            32.85234            16.14357            11.09489            11.90172            27.46288            30.67425            13.36814            12.37862            22.84356            17.97796            22.79201            19.28704             9.20045            12.34588            19.14965            17.48156            11.72293            12.37978            27.43481            13.23028            27.61079            24.97348            11.95324            25.38634             9.30248            27.84676            28.09629            22.72395            23.29428            12.35265            11.37523            18.45185            11.90799            10.43173            26.77352            21.39158            10.53158            15.48850            18.79589            23.88714            10.92620            15.01658            13.31638            12.99511            25.78860            21.99675            16.64693            16.32884            15.28427             5.86382             5.84567            27.39711            14.38225            26.43527            25.63414            26.15279            19.57470            18.77956            11.58844            23.12302            11.71427            10.60150            26.64251            10.20689            19.20511            13.07954            21.64697             8.84120             5.83599            22.32174            19.17611            12.97272            11.30556            14.63337            19.82834            21.96873            11.90798            27.22367            21.52087            12.14477            13.76858            27.38037            12.70198            13.20855            23.12146            28.86313            12.75262            21.50978             9.50898             9.32424            21.86381            14.87050             9.24813            18.89087            12.13567            13.72247            22.82484            17.55067            16.86064            25.31342            18.81905            17.56039            11.85830            14.57038            12.18987            15.25751            12.23922            19.45600            13.41168            22.51133            16.97625             8.83646            11.23199            25.80183            22.44207            11.85935            22.22167            18.17768            22.58901            15.32231            13.79483            14.00507            11.75141            10.32566            20.46261            17.82078             9.69906            12.99374            12.24761            25.57200            11.89706            23.07466            11.85496            14.21524            18.69693            10.64161            10.72547            10.97923            19.36665             6.06847            20.20785            21.18586            25.91394            31.48790            11.68329            18.05227            25.26169            12.10192            17.63086            11.51899            25.03254            27.20846            24.02979             5.77265            23.85499            27.32973             9.43698            13.71569            26.54711            10.52308            10.91203            12.32998            10.26324             9.36277            12.64715            19.07363            12.95946            11.81727            23.49406            21.08252            23.97772            20.41035            15.05723            13.29988             9.67518            19.16102            10.16721            18.61274            22.47722            16.19707            13.23816            15.51184            28.74108            25.59657            13.60990            23.75201            14.48425            18.49872            25.78526            12.30590            15.48362            12.17299            22.78529            15.04390            18.81894            16.75824            17.08418            12.24648            21.83651            24.31480             9.76180            19.95802            25.32377            14.48497            19.28180            14.07247            25.29609            10.88562            14.24534            13.84743            19.19114            24.70686            15.77364            29.97200            17.69271             9.70049            14.21627            12.94893            13.02312            10.47080            25.96167            12.10375             9.95458             6.21373             9.52770            12.14368            16.65334            19.80510             8.72500            10.89780            13.42382            18.92206            17.66140            21.86410            25.50698            10.17558            15.75957             9.60071            16.83525            40.45411            28.20730             9.10145            11.88582            13.02815            11.60229            27.10959            18.65457             9.95669            19.96114            22.51718            29.05774            14.87381            14.21996            21.19334             9.13887            27.43762            27.43151            15.15396            24.30785            28.44063            17.65956            23.14123            16.49188            13.90753            12.14249            11.01773            22.59525            17.18894            21.66846            11.36520            15.84223            22.87721            15.04307             9.52433            18.92182            14.50376            29.60099            19.03440            13.77955             8.85987            12.31720            21.88332            11.79821            21.93127            21.50025            12.65351            22.46397            14.84183            11.06075            10.17363            15.48901            17.39904            17.72695            15.82669            12.03920            16.86293            22.97676            14.88650            27.03610            14.62516            17.94110            17.28831            15.18289             9.04644            16.20692            15.79059            12.77528             9.96567            11.51336            20.53979            14.27614            11.17963            25.61009            10.51052            10.86947            25.62714            15.91461             9.41829            16.38744             5.90429            23.53580            16.57732            22.77313            15.66669            25.81394            11.80420            19.87941            19.47594            10.96286            21.38686            22.49885            11.92208            10.54862            13.92826            16.87981            10.13293            16.44395            15.95378            21.85364            19.61639             9.07049            16.91175            19.32293            17.40950            19.11091            12.57911            12.32875             9.29989            11.02952            11.11117             8.47761            17.19957            20.91003            19.51963            15.95485            19.04077            20.59316             9.04682            30.10745            21.71586            12.09684            11.86627            30.03900            11.05301            15.82997            10.83639            23.84474            24.19280            20.32413            15.87981            22.59207            14.74690            30.89019            16.28707            22.85618            15.82974            25.86867            10.84318            12.79155            16.18290            17.51596            17.19589            27.71933            36.02275            15.79985            11.45068            14.37121            22.51269             9.67094            22.19726            22.63915            11.85549            11.79160            13.21154             8.22029            11.43011            14.10380            27.21965            15.66958            15.27652            18.24322            25.15452            26.62935            12.16472            24.69160            22.90870            12.78721            19.90922            14.59953            23.37184            18.12843            18.45453            25.22217            28.79983            12.47595            12.27841             9.33088             8.84001            26.59045            19.10542             9.70842            24.89481            23.48886            23.86607            11.89390            14.46447            13.67616            18.81851            15.64153            15.46340            27.42408            10.49907            13.06726            28.57707            17.41450             9.61331            18.33347            16.52194            18.07654            16.31506            27.13653            26.71299            13.66831            16.29971            14.98614            23.53209            19.78856            19.00893            19.69849            15.63411            25.13001            15.39198            27.89014            21.75858            22.78487            15.96689             9.75466            20.86937            19.78343            17.26956            17.46475             6.72477            15.31054             9.96668            10.77811             9.78565            14.44155            10.92317            23.03378            12.21276            38.90506            10.75888             8.45227            11.99276            11.98281            14.74110            22.02708            27.02832            12.21934            11.55640            10.28430            23.69686            17.82285            15.60100            11.99817            11.07993            18.60198            20.23825            16.60448            30.16367            26.52694            11.82537            13.76101            11.40764            21.57330             6.64737            13.55568            21.93296            18.89150            18.25002            11.93427             9.76308            21.96027            13.72474            20.53061            27.54672             8.99341            13.05431            11.03222            12.92410            19.27515            21.68162            28.12646            16.13686             9.38226            12.66065            22.11603            22.51956            18.89597            21.44952            20.92631            17.92708            13.20451            27.30827            14.25752            21.46764            13.29338            21.96742            13.28180            23.23059            11.86635            27.24168            12.37846            25.73507            27.02087            20.74275            11.43101            14.60074            17.51126            15.97110            16.35395            13.12229            11.47459            24.62433            13.53116            13.17562    