# vtk DataFile Version 3.0
Output from cR2
ASCII
DATASET UNSTRUCTURED_GRID
POINTS      11902 double
     0.00000   304.30000   0.
     1.00000   304.30000   0.
     2.00000   304.30000   0.
     3.00000   304.40000   0.
     4.00000   304.40000   0.
     5.00000   304.50000   0.
     6.00000   304.50000   0.
     7.00000   304.60000   0.
     8.00000   304.70000   0.
     9.00000   304.80000   0.
    10.00000   304.90000   0.
    11.00000   305.00000   0.
    12.00000   305.10000   0.
    13.00000   305.10000   0.
    14.00000   305.20000   0.
    15.00000   305.30000   0.
    15.90000   305.40000   0.
    16.90000   305.50000   0.
    18.00000   305.60000   0.
    19.00000   305.70000   0.
    20.00000   305.80000   0.
    20.90000   305.90000   0.
    21.90000   306.00000   0.
    23.00000   306.00000   0.
    24.00000   306.00000   0.
    25.00000   306.10000   0.
    26.00000   306.30000   0.
    27.00000   306.30000   0.
    28.00000   306.30000   0.
    29.00000   306.40000   0.
    30.00000   306.40000   0.
    31.00000   306.40000   0.
    32.00000   306.40000   0.
    33.00000   306.50000   0.
    34.00000   306.70000   0.
    35.00000   306.70000   0.
    35.90000   306.70000   0.
    36.90000   306.60000   0.
    37.90000   306.60000   0.
    38.90000   306.60000   0.
    40.00000   306.60000   0.
    40.90000   306.60000   0.
    42.00000   306.60000   0.
    43.00000   306.60000   0.
    44.00000   306.60000   0.
    45.00000   306.60000   0.
    46.00000   306.60000   0.
    47.00000   306.60000   0.
    47.90000   306.60000   0.
    49.00000   306.60000   0.
    50.00000   306.60000   0.
    51.00000   306.60000   0.
    52.00000   306.50000   0.
    53.00000   306.50000   0.
    54.00000   306.50000   0.
    55.00000   306.50000   0.
    56.00000   306.50000   0.
    57.00000   306.50000   0.
    58.00000   306.50000   0.
    59.00000   306.50000   0.
    60.00000   306.50000   0.
    61.10000   306.50000   0.
    62.00000   306.50000   0.
    63.10000   306.50000   0.
    64.10000   306.50000   0.
    65.10000   306.50000   0.
    66.10000   306.50000   0.
    67.10000   306.50000   0.
    68.10000   306.50000   0.
    69.10000   306.50000   0.
    70.10000   306.50000   0.
    71.10000   306.50000   0.
     2.05000   274.30000   0.
     5.57000   274.50000   0.
     9.10000   274.81000   0.
    12.63000   275.10000   0.
    16.15000   275.43000   0.
    19.68000   275.77000   0.
    23.21000   276.00000   0.
    26.73000   276.30000   0.
    30.26000   276.40000   0.
    33.79000   276.66000   0.
    37.31000   276.60000   0.
    40.84000   276.60000   0.
    44.37000   276.60000   0.
    47.89000   276.60000   0.
    51.42000   276.56000   0.
    54.95000   276.50000   0.
    58.47000   276.50000   0.
    62.00000   276.50000   0.
    65.53000   276.50000   0.
    69.05000   276.50000   0.
     0.25000   304.30000   0.
     0.50000   304.30000   0.
     0.75000   304.30000   0.
     1.25000   304.30000   0.
     1.50000   304.30000   0.
     1.75000   304.30000   0.
     2.25000   304.32500   0.
     2.50000   304.35000   0.
     2.75000   304.37500   0.
     3.25000   304.40000   0.
     3.50000   304.40000   0.
     3.75000   304.40000   0.
     4.25000   304.42500   0.
     4.50000   304.45000   0.
     4.75000   304.47500   0.
     5.25000   304.50000   0.
     5.50000   304.50000   0.
     5.75000   304.50000   0.
     6.25000   304.52500   0.
     6.50000   304.55000   0.
     6.75000   304.57500   0.
     7.25000   304.62500   0.
     7.50000   304.65000   0.
     7.75000   304.67500   0.
     8.25000   304.72500   0.
     8.50000   304.75000   0.
     8.75000   304.77500   0.
     9.25000   304.82500   0.
     9.50000   304.85000   0.
     9.75000   304.87500   0.
    10.25000   304.92500   0.
    10.50000   304.95000   0.
    10.75000   304.97500   0.
    11.25000   305.02500   0.
    11.50000   305.05000   0.
    11.75000   305.07500   0.
    12.25000   305.10000   0.
    12.50000   305.10000   0.
    12.75000   305.10000   0.
    13.25000   305.12500   0.
    13.50000   305.15000   0.
    13.75000   305.17500   0.
    14.25000   305.22500   0.
    14.50000   305.25000   0.
    14.75000   305.27500   0.
    15.22500   305.32500   0.
    15.45000   305.35000   0.
    15.67500   305.37500   0.
    16.15000   305.42500   0.
    16.40000   305.45000   0.
    16.65000   305.47500   0.
    17.12000   305.52000   0.
    17.34000   305.54000   0.
    17.56000   305.56000   0.
    17.78000   305.58000   0.
    18.25000   305.62500   0.
    18.50000   305.65000   0.
    18.75000   305.67500   0.
    19.25000   305.72500   0.
    19.50000   305.75000   0.
    19.75000   305.77500   0.
    20.22500   305.82500   0.
    20.45000   305.85000   0.
    20.67500   305.87500   0.
    21.15000   305.92500   0.
    21.40000   305.95000   0.
    21.65000   305.97500   0.
    22.12000   306.00000   0.
    22.34000   306.00000   0.
    22.56000   306.00000   0.
    22.78000   306.00000   0.
    23.25000   306.00000   0.
    23.50000   306.00000   0.
    23.75000   306.00000   0.
    24.25000   306.02500   0.
    24.50000   306.05000   0.
    24.75000   306.07500   0.
    25.25000   306.15000   0.
    25.50000   306.20000   0.
    25.75000   306.25000   0.
    26.25000   306.30000   0.
    26.50000   306.30000   0.
    26.75000   306.30000   0.
    27.25000   306.30000   0.
    27.50000   306.30000   0.
    27.75000   306.30000   0.
    28.25000   306.32500   0.
    28.50000   306.35000   0.
    28.75000   306.37500   0.
    29.25000   306.40000   0.
    29.50000   306.40000   0.
    29.75000   306.40000   0.
    30.25000   306.40000   0.
    30.50000   306.40000   0.
    30.75000   306.40000   0.
    31.25000   306.40000   0.
    31.50000   306.40000   0.
    31.75000   306.40000   0.
    32.25000   306.42500   0.
    32.50000   306.45000   0.
    32.75000   306.47500   0.
    33.25000   306.55000   0.
    33.50000   306.60000   0.
    33.75000   306.65000   0.
    34.25000   306.70000   0.
    34.50000   306.70000   0.
    34.75000   306.70000   0.
    35.22500   306.70000   0.
    35.45000   306.70000   0.
    35.67500   306.70000   0.
    36.15000   306.67500   0.
    36.40000   306.65000   0.
    36.65000   306.62500   0.
    37.15000   306.60000   0.
    37.40000   306.60000   0.
    37.65000   306.60000   0.
    38.15000   306.60000   0.
    38.40000   306.60000   0.
    38.65000   306.60000   0.
    39.12000   306.60000   0.
    39.34000   306.60000   0.
    39.56000   306.60000   0.
    39.78000   306.60000   0.
    40.22500   306.60000   0.
    40.45000   306.60000   0.
    40.67500   306.60000   0.
    41.12000   306.60000   0.
    41.34000   306.60000   0.
    41.56000   306.60000   0.
    41.78000   306.60000   0.
    42.25000   306.60000   0.
    42.50000   306.60000   0.
    42.75000   306.60000   0.
    43.25000   306.60000   0.
    43.50000   306.60000   0.
    43.75000   306.60000   0.
    44.25000   306.60000   0.
    44.50000   306.60000   0.
    44.75000   306.60000   0.
    45.25000   306.60000   0.
    45.50000   306.60000   0.
    45.75000   306.60000   0.
    46.25000   306.60000   0.
    46.50000   306.60000   0.
    46.75000   306.60000   0.
    47.22500   306.60000   0.
    47.45000   306.60000   0.
    47.67500   306.60000   0.
    48.12000   306.60000   0.
    48.34000   306.60000   0.
    48.56000   306.60000   0.
    48.78000   306.60000   0.
    49.25000   306.60000   0.
    49.50000   306.60000   0.
    49.75000   306.60000   0.
    50.25000   306.60000   0.
    50.50000   306.60000   0.
    50.75000   306.60000   0.
    51.25000   306.57500   0.
    51.50000   306.55000   0.
    51.75000   306.52500   0.
    52.25000   306.50000   0.
    52.50000   306.50000   0.
    52.75000   306.50000   0.
    53.25000   306.50000   0.
    53.50000   306.50000   0.
    53.75000   306.50000   0.
    54.25000   306.50000   0.
    54.50000   306.50000   0.
    54.75000   306.50000   0.
    55.25000   306.50000   0.
    55.50000   306.50000   0.
    55.75000   306.50000   0.
    56.25000   306.50000   0.
    56.50000   306.50000   0.
    56.75000   306.50000   0.
    57.25000   306.50000   0.
    57.50000   306.50000   0.
    57.75000   306.50000   0.
    58.25000   306.50000   0.
    58.50000   306.50000   0.
    58.75000   306.50000   0.
    59.25000   306.50000   0.
    59.50000   306.50000   0.
    59.75000   306.50000   0.
    60.22000   306.50000   0.
    60.44000   306.50000   0.
    60.66000   306.50000   0.
    60.88000   306.50000   0.
    61.32500   306.50000   0.
    61.55000   306.50000   0.
    61.77500   306.50000   0.
    62.22000   306.50000   0.
    62.44000   306.50000   0.
    62.66000   306.50000   0.
    62.88000   306.50000   0.
    63.35000   306.50000   0.
    63.60000   306.50000   0.
    63.85000   306.50000   0.
    64.35000   306.50000   0.
    64.60000   306.50000   0.
    64.85000   306.50000   0.
    65.35000   306.50000   0.
    65.60000   306.50000   0.
    65.85000   306.50000   0.
    66.35000   306.50000   0.
    66.60000   306.50000   0.
    66.85000   306.50000   0.
    67.35000   306.50000   0.
    67.60000   306.50000   0.
    67.85000   306.50000   0.
    68.35000   306.50000   0.
    68.60000   306.50000   0.
    68.85000   306.50000   0.
    69.35000   306.50000   0.
    69.60000   306.50000   0.
    69.85000   306.50000   0.
    70.35000   306.50000   0.
    70.60000   306.50000   0.
    70.85000   306.50000   0.
     0.28500   274.30000   0.
     1.16750   274.30000   0.
     2.93000   274.35000   0.
     3.81000   274.40000   0.
     4.69000   274.45000   0.
     6.45250   274.57750   0.
     7.33500   274.65500   0.
     8.21750   274.73250   0.
     9.98250   274.88250   0.
    10.86500   274.95500   0.
    11.74750   275.02750   0.
    13.51000   275.18250   0.
    14.39000   275.26500   0.
    15.27000   275.34750   0.
    17.03250   275.51500   0.
    17.91500   275.60000   0.
    18.79750   275.68500   0.
    20.56250   275.82750   0.
[...]
POINT_DATA     11902
CELL_DATA     23279
SCALARS Magnitude(ohm.m) double 1
LOOKUP_TABLE default
            12.18277            12.26814            11.93375            13.29232            14.31830            12.25498            14.79843            11.79860            13.30963            12.47065            12.28040            13.76887            12.27036            14.18475            13.41606            11.94521            11.97550            11.98648            13.64989            11.79413            12.14816            12.27209            12.16027            11.86880            14.58815            11.97794            12.45337            12.50814            14.62228            11.99925            12.20937            11.96507            13.38421            14.11006            11.97525            13.54711            11.81482            11.83101            12.02112            12.20079            11.82242            11.98097            13.30325            14.70921            11.84975            12.04651            13.99568            14.50875            14.90851            11.87759            15.80767            12.06114            12.17133            11.85223            12.15389            12.01776            12.40291            12.00010            11.97635            12.06607            11.79023            12.41964            14.97604            11.92368            11.87450            13.78269            14.97480            14.45436            13.42720            11.75386            11.99318            11.82285            12.62043            12.06089            11.79161            12.15627            12.11734            15.35867            11.85504            11.95074            11.87544            12.23472            12.08200            12.01999            11.75845            12.61051            11.79050            11.95459            11.77666            12.05745            13.86257            11.97385            13.84470            13.70891            12.11547            13.50364            12.75027            13.22703            14.77019            12.79879            12.17488            13.74340            12.13874            13.12783            12.19986            12.09754            12.80917            12.64681            15.63369            12.04673            15.10202            12.21013            12.19300            12.16741            12.17584            12.16581            12.30638            12.18993            12.22906            15.38734            11.96908            12.42377            12.69177            12.23665            12.20684            12.21009            12.14543            12.69984            12.90729            12.22661            12.17628            14.96511            13.60807            13.87180            13.25663            12.26833            12.32703            12.20864            15.10602            11.98948            11.96565            16.04083            12.03111            12.49462            12.21722            12.23954            13.12809            15.86093            15.17765            14.69785            12.16422            14.01619            12.79598            13.35835            12.38181            13.02853            13.72980            12.56016            12.44276            12.17331            12.70426            12.35707            13.15561            14.52351            12.26615            12.24917            15.65139            13.20405            12.54287            13.60517            12.76266            13.01224            12.50696            13.29618            12.62798            12.17327            13.46495            14.40200            14.33971            15.41006            15.45893            12.57703            12.22786            12.11621            12.44508            13.29074            12.67431            12.30951            12.21331            12.83482            16.07266            13.24495            12.37264            12.19043            12.19825            11.82258            13.16492            13.06181            12.13356            12.15939            12.07163            12.12439            13.92027            12.95586            12.32963            12.29952            13.77630            12.12417            15.92841            11.93604            12.17508            15.74664            12.17228            12.51026            15.21267            12.21461            11.81441            14.59218            12.38618            12.19031            15.73447            12.72923            13.04814            13.08023            12.17619            13.38530            13.63898            13.44947            12.12754            12.45230            12.10326            12.57693            13.21229            12.64785            12.22242            11.99042            12.18667            14.40918            13.50448            13.68829            12.14459            15.52385            12.17967            13.93387            12.51477            12.26361            12.93194            12.51772            12.53527            12.19418            14.87550            14.01678            12.49144            14.16887            12.23059            14.06999            12.03735            12.32691            12.18651            12.37866            12.75810            14.75408            14.38275            12.90616            14.22780            15.08646            12.14627            12.51499            11.87049            14.83779            15.50199            12.64163            15.06041            11.93532            12.17468            11.80024            11.95671            12.90324            12.45066            14.52220            11.86225            12.22161            11.93180            11.84205            12.96292            12.78394            11.88060            15.35882            12.00418            12.58686            12.86136            11.96991            12.34803            11.97349            13.14096            12.27394            12.14993            12.05679            12.11035            12.03649            13.03783            15.90004            12.07002            12.00202            15.30134            12.00485            12.20133            11.95642            13.79911            12.83137            11.93926            12.16125            12.08582            12.38447            12.64058            15.26450            12.16370            12.41894            12.71154            15.28634            12.06237            11.98565            11.94483            12.18794            11.96150            11.99519            15.49018            12.93859            12.01225            15.82064            12.21047            11.84687            15.77072            15.00880            12.97510            11.97395            15.61531            12.34251            15.67587            15.19193            15.57794            15.31626            28.72216            25.79634            17.30706            24.91775            21.06108            11.29607            24.49619            21.36114            24.47117            31.96354            19.88445            34.12623            28.96111            11.21588            19.80731            23.20965            22.50861            14.90269            21.91368            25.85673            29.81335            22.34100            22.93959            26.81709            23.09402            23.59024            22.79536            32.44012            19.95879            18.12480            29.65002            21.99308            23.06183            20.75938            11.18428            14.11360            19.41998            33.33727            23.58198            22.33923            22.42311            31.83679            21.72782            24.72927            19.31484            14.13944            13.14960            11.46348            19.20142            21.46732            17.07691            14.76874            21.10891            28.62550            16.43797            24.40802            22.19842            24.23239            18.47473            23.31556            30.27130            17.61544            13.70789            24.65830            23.68631            12.81611            16.31182            16.59542            20.41539            22.57307            15.91075            20.61138            15.03755            20.46448            22.24845            22.76215            30.95955            33.52375            28.26397            24.80251            20.81019            15.10574            24.04243            19.05375            24.71256            27.95075            22.72194            30.80064            17.08550            28.63245            14.04870            27.26378            17.42718            23.64979            22.14955            19.94238            20.90337            14.08769            22.12606            31.35956            16.41272            18.33759            25.73007            32.42685            27.35765            13.55011            21.23889            17.56887            17.84150            27.08955            31.75573            28.89601            32.16880            18.27733            30.08517            33.69148            24.45871            36.71037            18.95843            34.01030            20.08138            30.58639            26.28502            18.87380            26.17396            17.66012            19.15093            20.52341            25.38312            24.70261            29.05039            14.88350            20.81164            16.17564            20.77012            17.81766            27.13218            18.16524            30.58817            27.26762            12.63754            29.30472            26.95280            25.45609             9.37103            30.10001            16.07510            28.81102            33.19869            29.69282            23.83671             9.95243            30.60605            16.68886            27.02761            13.27149            12.08630             9.56906            20.63357            31.30465            25.22401            18.40988            23.79603            19.82778            30.68931            24.96966            22.35437            30.42852            29.99820            25.49427            23.54111            23.14919            22.94319            22.40183            22.93504            28.98846            36.37142            14.62093            19.14613            18.49081            25.14871            32.36575            19.11652            32.47137             9.61772            24.41896            23.84975            28.80361            13.76891            14.68376            15.98837            17.34188            31.64733            16.92750            14.68190            26.60565            16.67664            14.19817            20.83385            29.84314            12.52455            29.67112            18.57934            23.37513            16.48699            19.11204            23.20247            14.96793            20.67177            19.78005            16.18826            14.48590            15.92120            11.82329            27.38744            23.25166            31.77595            24.59421            34.63218            29.35146            12.42027            21.12509            23.72968            33.54517            15.93569            25.40503            15.27481            13.31970            12.72540            20.01735             9.81726            25.94009            28.66579            20.19046            32.68552            16.81736            24.01099            25.47468            21.17488            13.14426            14.44224            27.17171            30.13639            20.05916            34.27714            19.28100            13.12822            27.57886            15.79158            22.92927            32.00738            25.29323            26.94155            13.98388            15.08749            18.91434            30.04030            21.12925            23.37647            20.28450            18.29102            22.56023            19.80278            20.10778            22.88510            34.68196            21.15449            26.87928            34.39419            17.48851            22.41725            18.10244            22.58640            30.88988            16.92550            24.56642            25.17201            20.18868            22.70315            24.69058            20.73066            25.21820            33.07090            31.42767            21.87401            13.05353            23.19936            30.94896            21.08714            15.35705            21.68335            11.37519            24.61365            24.64340            34.83354            17.41441            23.74248            13.08202            30.17397            17.82854            21.05067            16.05786            28.34289            33.66271            27.24018            22.36435            19.43916            17.41851            17.70395            14.49814            12.55125            20.80854            23.94245            26.45340            33.42695            36.15598            14.10803            28.65721            25.19089            31.52647            22.42582            17.95127            15.96159            17.31782            30.39541            16.28804            23.42151            22.71281            32.56287            17.47610            23.55556            16.30300            22.21896            23.96161            24.54980            14.03400            32.67525            30.09419            14.38187            33.32177            15.09012            20.39342            21.14985            19.01318            20.70460            30.76222            20.84837            17.40368            20.85134            17.04615            15.75994            18.08340            15.20296            24.62783            17.30516            18.56387            16.60647            17.65528            22.35064            15.44443            15.25415            24.49329            22.64921            17.53088            20.79144            11.69169            30.38312            31.55881            30.31731            17.90718            25.98863            27.71340            13.38548            32.76893            12.47077            31.80756            22.88214            27.53154            16.75175            15.73143            29.96291            22.79235            19.90379            22.40132            21.79571            19.91890            24.32802            16.30796            17.38690            16.76072            15.36050            24.53400            23.57373            24.42897            29.84357            15.85766            28.41053            15.53638            18.90728            16.44778            25.76638            16.61562            24.86198            19.27418            28.52145            24.12305            24.75639            24.31735            13.42134            19.16039            17.43319            25.62243            25.26962            11.51187            15.00164            17.31007            31.02792            25.34700             9.69371            15.32007            27.91891            32.24787            19.90723            21.61847            21.61165            21.24719            28.27479            20.81196            31.68348            30.25931            22.60767            17.79536            22.59221            16.78683            21.77709            20.76023            13.55039            11.72453            23.83679            21.24548            12.33395            17.48992            21.24753            15.28664            27.38701            19.19645            21.87368            15.59059            24.20975            10.97160            12.76949            24.01915            15.18710            17.84437            28.33232            19.07426            26.06478            23.27564            23.90385            15.50610            17.89361            22.20530            31.10987            31.19424            10.69787            12.47274            24.04083            33.68157            15.58716            28.38516            15.00628            17.31023            13.24091            25.27071            16.78318            21.64535            37.25786            22.35669            24.05008            24.06049             9.67311            23.92812            25.90291            11.24368            17.17541            13.75728            18.99830            26.29202            19.59297            17.71944            17.03363            15.48280            16.74401            16.17904            34.58965            21.22253            23.90565            14.84326            22.03691            21.78003            23.99205            18.89411            22.31949            37.83916            16.68564            22.89430            10.98222            13.66985            34.31546            20.82536            36.21931            15.20611            22.09749            28.24581            19.16380            17.43891            32.02233            32.28950            12.47103            26.20148            13.26575            19.71755            28.22086            15.63818            35.88644            19.29600            33.58061            31.48758            26.76524            18.58821            26.85508            22.35387            11.91605            23.60159            27.59381            20.10866            24.55474            34.15766            17.58034            37.87261            26.97182            21.43713            30.76469            18.20910            27.66806            37.91373            38.02401            16.05064            15.16124            24.73315            25.38806            12.81907            18.22175            20.86865            16.06419            30.50088            37.70392            22.12738            18.51621            19.18179            36.71119            33.69759            23.30509            32.25479            20.31616            15.65251            11.09652            22.03275            20.03729            13.14410            23.86369            21.37876            17.26511            17.28395            15.34675            19.40120            18.50698            15.16237            30.03532            18.96006            29.60191            18.77038            15.60878            32.67997            20.63777            20.08183            11.59545            21.77662            25.13999            36.82392            20.51113            20.73339            21.34871            17.45993            27.42428            13.94751            37.62798            18.72579            17.21852            17.96557            24.74100            20.76709            28.48642            23.26532            25.15789            34.95105            25.06031            31.02772            25.26873            17.11160            24.49677            28.50354            16.27823            20.59532            16.05452            31.45711            19.94874            10.52971            19.40799            17.31938            32.95555            22.48036            17.98661            31.00546            31.30981            16.37195            35.03625            34.36005            27.25282            22.47381            21.00237            18.97537            12.69966            17.45457            25.56282            23.15217            20.50226            24.72776            25.65009            22.46527            35.34980            17.76864            24.17912            37.39076            16.85662            10.00521            18.33318            31.66182            35.21247            17.63569            19.85979            37.75351            13.56156    