# vtk DataFile Version 3.0
Output from cR2
ASCII
DATASET UNSTRUCTURED_GRID
POINTS      10125 double
     0.00000   273.60000   0.
     1.00000   273.60000   0.
     2.20000   273.50000   0.
     3.40000   273.50000   0.
     4.40000   273.50000   0.
     5.30000   273.50000   0.
     6.30000   273.50000   0.
     7.40000   273.50000   0.
     8.40000   273.50000   0.
     9.30000   273.40000   0.
    10.30000   273.40000   0.
    11.30000   273.40000   0.
    12.20000   273.40000   0.
    13.20000   273.40000   0.
    14.20000   273.40000   0.
    15.20000   273.40000   0.
    16.20000   273.30000   0.
    17.20000   273.30000   0.
    18.20000   273.20000   0.
    19.20000   273.20000   0.
    20.10000   273.20000   0.
    21.20000   273.20000   0.
    22.20000   273.10000   0.
    23.20000   273.10000   0.
    24.30000   273.20000   0.
    25.20000   273.30000   0.
    26.30000   273.30000   0.
    27.20000   273.30000   0.
    28.20000   273.50000   0.
    29.30000   273.60000   0.
    30.30000   273.60000   0.
    31.30000   273.70000   0.
    32.30000   273.70000   0.
    33.30000   273.80000   0.
    34.20000   273.90000   0.
    35.20000   273.90000   0.
    36.20000   274.00000   0.
    37.30000   274.00000   0.
    38.20000   274.10000   0.
    39.20000   274.30000   0.
    40.20000   274.40000   0.
    41.20000   274.50000   0.
    42.10000   274.70000   0.
    43.20000   274.80000   0.
    44.10000   274.90000   0.
    45.10000   275.00000   0.
    46.10000   275.10000   0.
    47.10000   275.30000   0.
    48.10000   275.40000   0.
    49.10000   275.50000   0.
    50.00000   275.60000   0.
    51.10000   275.80000   0.
    52.10000   275.90000   0.
    53.10000   276.10000   0.
    54.10000   276.20000   0.
    55.10000   276.30000   0.
    56.10000   276.40000   0.
    57.00000   276.60000   0.
    58.00000   276.70000   0.
    59.00000   276.80000   0.
    59.90000   276.90000   0.
    60.90000   277.00000   0.
    61.90000   277.20000   0.
    62.90000   277.30000   0.
    63.90000   277.40000   0.
    64.90000   277.60000   0.
    65.90000   277.70000   0.
    66.90000   277.80000   0.
    67.90000   277.90000   0.
    68.90000   278.00000   0.
    69.80000   278.10000   0.
    70.80000   278.20000   0.
     2.04000   248.51000   0.
     5.55000   248.50000   0.
     9.06000   248.43000   0.
    12.57000   248.40000   0.
    16.08000   248.31000   0.
    19.60000   248.20000   0.
    23.11000   248.10000   0.
    26.62000   248.30000   0.
    30.13000   248.60000   0.
    33.64000   248.84000   0.
    37.16000   249.00000   0.
    40.67000   249.45000   0.
    44.18000   249.91000   0.
    47.69000   250.36000   0.
    51.20000   250.81000   0.
    54.72000   251.26000   0.
    58.23000   251.72000   0.
    61.74000   252.17000   0.
    65.25000   252.64000   0.
    68.76000   252.99000   0.
     0.25000   273.60000   0.
     0.50000   273.60000   0.
     0.75000   273.60000   0.
     1.24000   273.58000   0.
     1.48000   273.56000   0.
     1.72000   273.54000   0.
     1.96000   273.52000   0.
     2.44000   273.50000   0.
     2.68000   273.50000   0.
     2.92000   273.50000   0.
     3.16000   273.50000   0.
     3.65000   273.50000   0.
     3.90000   273.50000   0.
     4.15000   273.50000   0.
     4.62500   273.50000   0.
     4.85000   273.50000   0.
     5.07500   273.50000   0.
     5.55000   273.50000   0.
     5.80000   273.50000   0.
     6.05000   273.50000   0.
     6.52000   273.50000   0.
     6.74000   273.50000   0.
     6.96000   273.50000   0.
     7.18000   273.50000   0.
     7.65000   273.50000   0.
     7.90000   273.50000   0.
     8.15000   273.50000   0.
     8.62500   273.47500   0.
     8.85000   273.45000   0.
     9.07500   273.42500   0.
     9.55000   273.40000   0.
     9.80000   273.40000   0.
    10.05000   273.40000   0.
    10.55000   273.40000   0.
    10.80000   273.40000   0.
    11.05000   273.40000   0.
    11.52500   273.40000   0.
    11.75000   273.40000   0.
    11.97500   273.40000   0.
    12.45000   273.40000   0.
    12.70000   273.40000   0.
    12.95000   273.40000   0.
    13.45000   273.40000   0.
    13.70000   273.40000   0.
    13.95000   273.40000   0.
    14.45000   273.40000   0.
    14.70000   273.40000   0.
    14.95000   273.40000   0.
    15.45000   273.37500   0.
    15.70000   273.35000   0.
    15.95000   273.32500   0.
    16.45000   273.30000   0.
    16.70000   273.30000   0.
    16.95000   273.30000   0.
    17.45000   273.27500   0.
    17.70000   273.25000   0.
    17.95000   273.22500   0.
    18.45000   273.20000   0.
    18.70000   273.20000   0.
    18.95000   273.20000   0.
    19.42500   273.20000   0.
    19.65000   273.20000   0.
    19.87500   273.20000   0.
    20.32000   273.20000   0.
    20.54000   273.20000   0.
    20.76000   273.20000   0.
    20.98000   273.20000   0.
    21.45000   273.17500   0.
    21.70000   273.15000   0.
    21.95000   273.12500   0.
    22.45000   273.10000   0.
    22.70000   273.10000   0.
    22.95000   273.10000   0.
    23.42000   273.12000   0.
    23.64000   273.14000   0.
    23.86000   273.16000   0.
    24.08000   273.18000   0.
    24.52500   273.22500   0.
    24.75000   273.25000   0.
    24.97500   273.27500   0.
    25.42000   273.30000   0.
    25.64000   273.30000   0.
    25.86000   273.30000   0.
    26.08000   273.30000   0.
    26.52500   273.30000   0.
    26.75000   273.30000   0.
    26.97500   273.30000   0.
    27.45000   273.35000   0.
    27.70000   273.40000   0.
    27.95000   273.45000   0.
    28.42000   273.52000   0.
    28.64000   273.54000   0.
    28.86000   273.56000   0.
    29.08000   273.58000   0.
    29.55000   273.60000   0.
    29.80000   273.60000   0.
    30.05000   273.60000   0.
    30.55000   273.62500   0.
    30.80000   273.65000   0.
    31.05000   273.67500   0.
    31.55000   273.70000   0.
    31.80000   273.70000   0.
    32.05000   273.70000   0.
    32.55000   273.72500   0.
    32.80000   273.75000   0.
    33.05000   273.77500   0.
    33.52500   273.82500   0.
    33.75000   273.85000   0.
    33.97500   273.87500   0.
    34.45000   273.90000   0.
    34.70000   273.90000   0.
    34.95000   273.90000   0.
    35.45000   273.92500   0.
    35.70000   273.95000   0.
    35.95000   273.97500   0.
    36.42000   274.00000   0.
    36.64000   274.00000   0.
    36.86000   274.00000   0.
    37.08000   274.00000   0.
    37.52500   274.02500   0.
    37.75000   274.05000   0.
    37.97500   274.07500   0.
    38.45000   274.15000   0.
    38.70000   274.20000   0.
    38.95000   274.25000   0.
    39.45000   274.32500   0.
    39.70000   274.35000   0.
    39.95000   274.37500   0.
    40.45000   274.42500   0.
    40.70000   274.45000   0.
    40.95000   274.47500   0.
    41.42500   274.55000   0.
    41.65000   274.60000   0.
    41.87500   274.65000   0.
    42.32000   274.72000   0.
    42.54000   274.74000   0.
    42.76000   274.76000   0.
    42.98000   274.78000   0.
    43.42500   274.82500   0.
    43.65000   274.85000   0.
    43.87500   274.87500   0.
    44.35000   274.92500   0.
    44.60000   274.95000   0.
    44.85000   274.97500   0.
    45.35000   275.02500   0.
    45.60000   275.05000   0.
    45.85000   275.07500   0.
    46.35000   275.15000   0.
    46.60000   275.20000   0.
    46.85000   275.25000   0.
    47.35000   275.32500   0.
    47.60000   275.35000   0.
    47.85000   275.37500   0.
    48.35000   275.42500   0.
    48.60000   275.45000   0.
    48.85000   275.47500   0.
    49.32500   275.52500   0.
    49.55000   275.55000   0.
    49.77500   275.57500   0.
    50.22000   275.64000   0.
    50.44000   275.68000   0.
    50.66000   275.72000   0.
    50.88000   275.76000   0.
    51.35000   275.82500   0.
    51.60000   275.85000   0.
    51.85000   275.87500   0.
    52.35000   275.95000   0.
    52.60000   276.00000   0.
    52.85000   276.05000   0.
    53.35000   276.12500   0.
    53.60000   276.15000   0.
    53.85000   276.17500   0.
    54.35000   276.22500   0.
    54.60000   276.25000   0.
    54.85000   276.27500   0.
    55.35000   276.32500   0.
    55.60000   276.35000   0.
    55.85000   276.37500   0.
    56.32500   276.45000   0.
    56.55000   276.50000   0.
    56.77500   276.55000   0.
    57.25000   276.62500   0.
    57.50000   276.65000   0.
    57.75000   276.67500   0.
    58.25000   276.72500   0.
    58.50000   276.75000   0.
    58.75000   276.77500   0.
    59.22500   276.82500   0.
    59.45000   276.85000   0.
    59.67500   276.87500   0.
    60.15000   276.92500   0.
    60.40000   276.95000   0.
    60.65000   276.97500   0.
    61.15000   277.05000   0.
    61.40000   277.10000   0.
    61.65000   277.15000   0.
    62.15000   277.22500   0.
    62.40000   277.25000   0.
    62.65000   277.27500   0.
    63.15000   277.32500   0.
    63.40000   277.35000   0.
    63.65000   277.37500   0.
    64.15000   277.45000   0.
    64.40000   277.50000   0.
    64.65000   277.55000   0.
    65.15000   277.62500   0.
    65.40000   277.65000   0.
    65.65000   277.67500   0.
    66.15000   277.72500   0.
    66.40000   277.75000   0.
    66.65000   277.77500   0.
    67.15000   277.82500   0.
    67.40000   277.85000   0.
    67.65000   277.87500   0.
    68.15000   277.92500   0.
    68.40000   277.95000   0.
    68.65000   277.97500   0.
    69.12500   278.02500   0.
    69.35000   278.05000   0.
    69.57500   278.07500   0.
    70.05000   278.12500   0.
    70.30000   278.15000   0.
    70.55000   278.17500   0.
     0.28500   248.55500   0.
     1.16250   248.53250   0.
     2.91750   248.50750   0.
     3.79500   248.50500   0.
     4.67250   248.50250   0.
     6.42750   248.48250   0.
     7.30500   248.46500   0.
     8.18250   248.44750   0.
     9.93750   248.42250   0.
    10.81500   248.41500   0.
    11.69250   248.40750   0.
    13.44750   248.37750   0.
    14.32500   248.35500   0.
    15.20250   248.33250   0.
    16.96000   248.28250   0.
[...]
POINT_DATA     10125
CELL_DATA     19733
SCALARS Magnitude(ohm.m) double 1
LOOKUP_TABLE default
            20.73241            20.84743            18.48851            19.03477            20.57238            18.64258            18.98272            19.44435            20.68829            20.42088            18.40921            19.87385            20.84494            20.49551            21.01350            16.53301            19.31598            19.13914            15.89980            16.88450            20.14443            20.04559            20.58037            17.07523            18.60101            20.74907            20.93503            20.32807            20.41061            16.02581            20.05590            19.79304            18.41885            20.65226            16.19398            20.85196            20.31625            18.97924            19.53252            20.67574            19.19294            18.55103            20.94554            19.27956            20.80716            18.83601            19.16744            19.66343            20.21729            19.88731            18.47408            20.76537            19.00498            20.44423            20.40107            20.28417            18.73103            20.74227            20.88292            20.58216            20.45760            21.02271            19.41639            18.85979            20.75863            19.15056            19.30230            19.77378            20.37377            20.54392            19.61472            19.58765            20.56951            20.08843            19.26651            20.94023            18.53599            18.25826            20.77692            18.50228            18.76590            19.03200            19.27865            20.37091            19.90469            19.59994            20.19906            18.87019            20.02043            20.30463            20.67371            20.56034            19.80747            20.76205            18.63691            19.53220            20.46053            20.18365            19.39795            20.89545            18.03603            16.70995            18.63190            18.89726            19.15577            20.59089            20.27043            19.45976            19.72249            18.87569            19.12325            19.36919            18.38238            20.04975            20.25907            20.44766            19.48723            20.10011            19.91249            20.68602            20.87554            21.06629            20.52291            15.21959            18.84826            13.46243            21.00107            20.60747            13.55281            15.55081            16.48439            17.24765            16.86113            15.84443            18.63091            21.11415            18.38782            13.75090            18.74847            19.09703            20.98394            19.43173            19.75011            13.35075            20.74742            21.12110            21.08294            13.82216            13.93126            19.82982            19.00473            19.25697            20.88105            19.60401            20.16033            18.01810            17.63645            13.24917            13.96569            20.35955            20.72092            14.01581            13.41318            18.75826            13.89218            13.71149            15.08540            20.53113            13.50966            14.42872            20.57735            19.94486            13.67358            20.14812            20.92631            16.36015            20.80755            19.74161            21.08311            21.02882            13.63966            21.01686            15.73215            17.04304            13.81542            16.66790            15.38857            18.55254            18.51568            18.90398            19.24403            21.10393            19.56859            13.85204            21.09009            13.48949            20.67663            13.64267            19.49663            20.92290            18.19226            18.51610            17.42936            14.67173            20.59856            19.72542            13.94463            20.78171            17.81746            20.18705            20.91273            13.78459            13.74628            18.64581            19.88358            20.51958            20.29853            19.99428            19.51343            13.58345            17.82902            20.28412            14.56180            20.86719            16.30258            14.93582            20.52291            15.98393            14.21017            13.61044            19.16667            20.74117            14.33427            14.13126            14.81656            16.12910            20.82923            18.66107            20.14122            18.76007            18.27407            13.58464            20.09146            19.67141            20.84922            20.86023            18.50168            20.67456            18.18688            19.27370            20.04305            17.24957            19.38369            19.83390            18.77150            18.91312            20.38656            18.30159            20.88086            13.17992            17.45043            19.77065            18.16307            20.13467            20.63512            20.37972            20.33115            19.90304            19.62913            20.23674            18.99775            20.49993            20.03191            19.92206            20.41936            20.97241            20.92881            17.62550            18.73533            20.69013            19.99054            20.19445            20.94495            17.99301            20.95005            19.72025            19.81862            20.27595            20.88509            19.79662            20.57024            20.62918            21.89033            12.64918            12.54613            20.36263            11.58183            11.46109            10.79741            11.80564            10.34062            22.37447            11.84365            13.90448             9.42872            11.83037            12.85828            10.74091            11.59343            10.77304             9.85627            42.96830            10.85262            10.37486            14.83389            12.48863            22.92311            10.31045            21.87638            10.75223            16.24735            24.37051            10.26077            21.74288            10.97129            21.78853            13.51157            11.91110            13.56849            14.25027            11.16946            18.49623            19.31446            29.60947            13.81728            12.20057            12.79374             9.81874            15.98998             9.70380            10.12579            17.79426            26.43718            19.80275            11.73493            16.85374            10.16129            14.00587             9.89686            14.06795            13.65104            12.68696            25.19804            14.23980            14.09252             9.87834            10.49161            11.43161            27.31379            23.46726            26.89815            10.42942             9.63746            12.70531            29.58503            15.94046            20.39265            10.96262            13.82875            14.76047            10.38893            16.04410            23.66041            12.48566            21.79862            18.88389             9.93314            12.31115            18.19850            10.85844            20.77144            17.36476            11.28593            11.93538            22.01647            22.24899            13.99517            22.26608            25.26976            10.62077            10.09322            10.02761            10.04536            13.98665            12.66579            16.35378            12.94579            12.95468            18.59016            14.71398            20.51418            13.79867            10.07495            11.17474            20.71908            19.19324            10.05093             9.95412             9.83868            14.96032            20.00205            17.33919            20.45669            10.91330            17.85999            13.45654             8.46374            14.01279            19.85619            22.57259             9.66788            11.05275            12.14812            13.48896            10.01282            26.61899            23.16473            11.32428            12.39216            16.90553            18.49087            11.48123            18.41061            10.40383            13.66713            21.21374             9.72894            10.60810            25.17431            10.73656            14.14557            20.66766            10.96031            14.12339            10.06569            21.93125            11.34158            13.78466            14.00600            22.85200            17.96403            13.03580            10.18056            18.48272            15.24427            17.21073             9.61915            13.68319            10.21937            21.23211            17.27403            20.99867             9.70423            17.00489            10.56087            25.19164            10.52283            10.34278            13.16630            15.93435            13.77220            14.01017            10.59575            16.98308             9.97557             9.83888            14.92240            22.76599            19.93110            18.89899            10.06183            13.80473            19.56994            22.90782            13.79277            13.76026            11.74386            11.64103            18.86441            13.38602            14.57076            10.48139            11.01191            12.57209            21.26710            10.05398            22.29351            13.76455            15.97039            12.41908            10.65406            13.18618            19.23595            14.23952             9.98637            13.73957            11.48725            23.26102            13.81602            21.65521            21.05264            26.14820            12.06203            20.78155            16.90278            13.24674            21.33458            13.70805             9.07583            13.93913            20.50168            11.30241            12.50652            16.88833            10.34160            21.80664             9.79461            20.56488            12.83101            16.97851            26.80067            25.37125            13.07104            13.77194            13.87004            11.18442            13.87916            16.09848            14.23185            10.39490            11.58720             9.32033            13.72570            10.69736            12.34138            10.89256            11.06817            16.26433            12.63807            21.23001            29.20801            11.20698            11.38324            21.19694             9.60743            10.68977             9.59792            12.82112            27.69233            13.77437            22.34437            16.24766            22.64673            13.43834            33.75939            18.03399            18.60826            10.14913             9.38105            13.70837            10.87055            16.10442            14.50806            13.66568            21.21771            21.13506            20.12836            10.00015            11.48183            23.52238            12.20318            10.09033            25.37169            12.19278            22.14315            10.82471            28.23294            12.21557            16.99702            11.21891            17.28434            13.66675            10.52729            17.36000            17.51550            10.77656            12.60468            21.79951            12.99747            19.56313            13.85679            13.79556            10.16526            19.86189            12.79643            18.86003            13.15600            15.61016            11.07961            13.68325            11.12600            14.15011             9.59498            10.14336            29.31199            12.92889            11.03664            10.42851            24.24677            11.58119            10.33387            18.72981            10.99377            16.38933            12.48348            15.18304            16.74421            13.62995            14.07810            19.27193            19.18041             8.33406            18.44109            13.47342            12.55266            13.27238            12.80855            15.44607            18.89225             8.97780            12.61018            24.87157             9.95845            19.88822            13.86656            16.41300            17.69425            10.15220            24.75904            20.94785            13.00817            22.20374            13.33633             9.81733            15.51161            14.10695            18.33865             6.75575            10.34513            15.69458            14.77056            10.85845            15.75714            12.82379            40.95161            23.17697            23.47999            28.25484            18.52276            13.38304            25.01509            20.75651            23.90609            14.14475            19.99020            11.35800            12.86800            10.77235            16.03419            13.89198            16.44871            10.53359            22.51040            23.53373             9.69190            17.02739            10.18450            14.29130            12.52582            15.65655            19.97585            13.28875            17.97328            21.12038            13.60071            14.02616            10.82052            10.43913            11.45944            13.88884            10.91976            10.67179            10.87178            10.50842            12.19055            10.92665            17.66892            12.93979            20.28490            12.06318            13.50660             9.86285            10.95636            14.86419            21.06730            11.41755             9.01924            14.03121             7.17329            10.63787            16.97622            12.66730            18.49745            14.09664            16.46720            11.19866            10.58759            20.80682            20.71767             9.91276            19.41571            12.54550            19.42147            19.43248            22.34371            11.00650            11.10082             9.34407            24.88648            10.42965            22.53335            21.71979            10.46736            18.19929            27.46204            15.06656            10.95768            15.87509            10.96231            10.31384            23.52879            20.70958            13.19775            10.36751            12.64861            10.38898            15.66558            21.71367            14.09394            20.35030            16.33613            10.96004            24.70555            15.81422            30.04883            12.40576            13.22171            12.74857            23.60647            19.39362            21.13952            12.79306            17.99995            13.60046            12.29090            10.68153             9.74130            11.14115            15.48196            13.86335            11.43492            16.93176            25.28471             9.52508            24.90522            22.47428            18.31976            11.56000            16.78335            21.07353            11.65153             9.53242            13.80610            18.80829            15.02204            14.71689            18.01377            22.67177            21.49669            20.34936            11.20702             8.10693            27.97613             9.66666            12.60875            23.96609            12.57643            10.67219            13.21612            10.27954            13.74121            10.14530            10.87731            22.44290            19.98444            14.68337             9.36497            12.93251            15.39137            13.09530            18.59905            13.33142             9.68467            10.62873            24.73394            20.25923            20.11667            18.16761            13.18191            34.78522            21.21465            10.22545            24.90003            11.16657            19.88106            19.08960            12.72293            16.23979            15.85416            13.94575            28.41165            16.88672            24.68263            14.73457            11.12811            15.64907            22.09514            11.16158            13.92816            18.73504            13.27505            13.90528            11.14306            27.69498            18.66419            11.76617            10.57204            12.68267            13.71536            18.46606            10.24690            14.34534            17.87858            10.56759            12.71118            16.57730            11.57478            22.40911            29.08834            12.73557            17.54862            23.17637            24.30414            10.02902            10.55374            13.85478            18.22825            10.36428            13.71184             9.43719            11.42537            17.41023            13.90160             9.33549            10.10415            24.99801            23.59931            16.22058            21.89348            22.36679             9.61685            16.16150            11.10708            10.69040            12.56975            10.14561             9.88251            23.08058            23.57178            17.50772            21.97908            24.03197            11.01399            17.18335            11.09948            12.41621            14.55802            19.79320            15.33592            20.67455            17.17489            28.89770            22.24054            10.82843            10.11541            13.56186            13.92762            11.33476            12.78590            11.90284            15.45222            13.91601            13.52008            13.61915            17.57822            11.16853            17.68106            10.04306            14.88209            12.32796            20.91843            10.33214            10.93940            16.87784            22.42013            10.12029            20.52965            28.09196            14.24003             8.11621            20.97334            15.31727            15.10627            20.04720             9.74261            15.74232            13.70855            22.69765            13.49943            25.23595            14.64429            10.90544            18.79236            26.18388            13.90326            14.03775            26.31190            13.60128             9.38129            14.17601            24.77265            13.26174            23.13415            11.81519            13.55646            15.36749             9.77302            15.91786            13.86239            24.11874            10.37678            13.24974            13.88402            19.40467            12.37502            33.64557            11.37700            10.34164            24.76740            15.80668            12.10904            15.36039            18.24877            22.32475            10.17658            13.80466             9.83851            23.80815            10.83048            13.30041            22.98922             9.62611            13.91064            19.85708            11.03907    