# vtk DataFile Version 3.0
Output from cR2
ASCII
DATASET UNSTRUCTURED_GRID
POINTS      10229 double
     0.00000   301.40000   0.
     1.00000   301.40000   0.
     1.90000   301.30000   0.
     3.00000   301.20000   0.
     4.00000   301.00000   0.
     5.00000   300.90000   0.
     5.90000   300.70000   0.
     7.00000   300.60000   0.
     8.00000   300.50000   0.
     9.10000   300.50000   0.
    10.00000   300.40000   0.
    11.00000   300.20000   0.
    12.00000   300.10000   0.
    13.00000   300.00000   0.
    14.00000   299.90000   0.
    15.00000   299.80000   0.
    15.90000   299.70000   0.
    17.00000   299.60000   0.
    17.90000   299.50000   0.
    19.00000   299.40000   0.
    20.00000   299.30000   0.
    21.00000   299.30000   0.
    21.90000   299.20000   0.
    23.00000   299.10000   0.
    24.00000   299.00000   0.
    25.00000   299.00000   0.
    26.00000   298.90000   0.
    27.00000   298.80000   0.
    28.00000   298.70000   0.
    28.90000   298.60000   0.
    29.90000   298.50000   0.
    31.00000   298.40000   0.
    32.00000   298.30000   0.
    33.00000   298.30000   0.
    34.00000   298.20000   0.
    34.90000   298.10000   0.
    35.90000   298.00000   0.
    36.90000   298.00000   0.
    37.90000   297.90000   0.
    38.90000   297.80000   0.
    39.90000   297.80000   0.
    40.90000   297.70000   0.
    41.90000   297.60000   0.
    43.00000   297.60000   0.
    43.90000   297.60000   0.
    45.00000   297.50000   0.
    45.90000   297.50000   0.
    47.00000   297.40000   0.
    47.90000   297.40000   0.
    49.10000   297.40000   0.
    49.90000   297.40000   0.
    50.80000   297.40000   0.
    52.00000   297.40000   0.
    53.00000   297.40000   0.
    54.00000   297.30000   0.
    55.00000   297.30000   0.
    56.00000   297.30000   0.
    57.00000   297.30000   0.
    58.00000   297.30000   0.
    59.00000   297.30000   0.
    60.10000   297.30000   0.
    61.00000   297.40000   0.
    62.00000   297.40000   0.
    63.10000   297.40000   0.
    64.00000   297.50000   0.
    65.00000   297.50000   0.
    66.10000   297.60000   0.
    67.00000   297.70000   0.
    68.00000   297.80000   0.
    69.00000   297.90000   0.
    70.10000   297.90000   0.
    71.00000   298.00000   0.
     2.04000   276.29000   0.
     5.57000   275.77000   0.
     9.09000   275.50000   0.
    12.61000   275.04000   0.
    16.13000   274.68000   0.
    19.65000   274.33000   0.
    23.17000   274.08000   0.
    26.70000   273.83000   0.
    30.22000   273.47000   0.
    33.74000   273.23000   0.
    37.26000   272.96000   0.
    40.78000   272.71000   0.
    44.30000   272.56000   0.
    47.83000   272.40000   0.
    51.35000   272.40000   0.
    54.87000   272.30000   0.
    58.39000   272.30000   0.
    61.91000   272.40000   0.
    65.43000   272.54000   0.
    68.96000   272.90000   0.
     0.25000   301.40000   0.
     0.50000   301.40000   0.
     0.75000   301.40000   0.
     1.22500   301.37500   0.
     1.45000   301.35000   0.
     1.67500   301.32500   0.
     2.12000   301.28000   0.
     2.34000   301.26000   0.
     2.56000   301.24000   0.
     2.78000   301.22000   0.
     3.25000   301.15000   0.
     3.50000   301.10000   0.
     3.75000   301.05000   0.
     4.25000   300.97500   0.
     4.50000   300.95000   0.
     4.75000   300.92500   0.
     5.22500   300.85000   0.
     5.45000   300.80000   0.
     5.67500   300.75000   0.
     6.12000   300.68000   0.
     6.34000   300.66000   0.
     6.56000   300.64000   0.
     6.78000   300.62000   0.
     7.25000   300.57500   0.
     7.50000   300.55000   0.
     7.75000   300.52500   0.
     8.22000   300.50000   0.
     8.44000   300.50000   0.
     8.66000   300.50000   0.
     8.88000   300.50000   0.
     9.32500   300.47500   0.
     9.55000   300.45000   0.
     9.77500   300.42500   0.
    10.25000   300.35000   0.
    10.50000   300.30000   0.
    10.75000   300.25000   0.
    11.25000   300.17500   0.
    11.50000   300.15000   0.
    11.75000   300.12500   0.
    12.25000   300.07500   0.
    12.50000   300.05000   0.
    12.75000   300.02500   0.
    13.25000   299.97500   0.
    13.50000   299.95000   0.
    13.75000   299.92500   0.
    14.25000   299.87500   0.
    14.50000   299.85000   0.
    14.75000   299.82500   0.
    15.22500   299.77500   0.
    15.45000   299.75000   0.
    15.67500   299.72500   0.
    16.12000   299.68000   0.
    16.34000   299.66000   0.
    16.56000   299.64000   0.
    16.78000   299.62000   0.
    17.22500   299.57500   0.
    17.45000   299.55000   0.
    17.67500   299.52500   0.
    18.12000   299.48000   0.
    18.34000   299.46000   0.
    18.56000   299.44000   0.
    18.78000   299.42000   0.
    19.25000   299.37500   0.
    19.50000   299.35000   0.
    19.75000   299.32500   0.
    20.25000   299.30000   0.
    20.50000   299.30000   0.
    20.75000   299.30000   0.
    21.22500   299.27500   0.
    21.45000   299.25000   0.
    21.67500   299.22500   0.
    22.12000   299.18000   0.
    22.34000   299.16000   0.
    22.56000   299.14000   0.
    22.78000   299.12000   0.
    23.25000   299.07500   0.
    23.50000   299.05000   0.
    23.75000   299.02500   0.
    24.25000   299.00000   0.
    24.50000   299.00000   0.
    24.75000   299.00000   0.
    25.25000   298.97500   0.
    25.50000   298.95000   0.
    25.75000   298.92500   0.
    26.25000   298.87500   0.
    26.50000   298.85000   0.
    26.75000   298.82500   0.
    27.25000   298.77500   0.
    27.50000   298.75000   0.
    27.75000   298.72500   0.
    28.22500   298.67500   0.
    28.45000   298.65000   0.
    28.67500   298.62500   0.
    29.15000   298.57500   0.
    29.40000   298.55000   0.
    29.65000   298.52500   0.
    30.12000   298.48000   0.
    30.34000   298.46000   0.
    30.56000   298.44000   0.
    30.78000   298.42000   0.
    31.25000   298.37500   0.
    31.50000   298.35000   0.
    31.75000   298.32500   0.
    32.25000   298.30000   0.
    32.50000   298.30000   0.
    32.75000   298.30000   0.
    33.25000   298.27500   0.
    33.50000   298.25000   0.
    33.75000   298.22500   0.
    34.22500   298.17500   0.
    34.45000   298.15000   0.
    34.67500   298.12500   0.
    35.15000   298.07500   0.
    35.40000   298.05000   0.
    35.65000   298.02500   0.
    36.15000   298.00000   0.
    36.40000   298.00000   0.
    36.65000   298.00000   0.
    37.15000   297.97500   0.
    37.40000   297.95000   0.
    37.65000   297.92500   0.
    38.15000   297.87500   0.
    38.40000   297.85000   0.
    38.65000   297.82500   0.
    39.15000   297.80000   0.
    39.40000   297.80000   0.
    39.65000   297.80000   0.
    40.15000   297.77500   0.
    40.40000   297.75000   0.
    40.65000   297.72500   0.
    41.15000   297.67500   0.
    41.40000   297.65000   0.
    41.65000   297.62500   0.
    42.12000   297.60000   0.
    42.34000   297.60000   0.
    42.56000   297.60000   0.
    42.78000   297.60000   0.
    43.22500   297.60000   0.
    43.45000   297.60000   0.
    43.67500   297.60000   0.
    44.12000   297.58000   0.
    44.34000   297.56000   0.
    44.56000   297.54000   0.
    44.78000   297.52000   0.
    45.22500   297.50000   0.
    45.45000   297.50000   0.
    45.67500   297.50000   0.
    46.12000   297.48000   0.
    46.34000   297.46000   0.
    46.56000   297.44000   0.
    46.78000   297.42000   0.
    47.22500   297.40000   0.
    47.45000   297.40000   0.
    47.67500   297.40000   0.
    48.14000   297.40000   0.
    48.38000   297.40000   0.
    48.62000   297.40000   0.
    48.86000   297.40000   0.
    49.30000   297.40000   0.
    49.50000   297.40000   0.
    49.70000   297.40000   0.
    50.12500   297.40000   0.
    50.35000   297.40000   0.
    50.57500   297.40000   0.
    51.04000   297.40000   0.
    51.28000   297.40000   0.
    51.52000   297.40000   0.
    51.76000   297.40000   0.
    52.25000   297.40000   0.
    52.50000   297.40000   0.
    52.75000   297.40000   0.
    53.25000   297.37500   0.
    53.50000   297.35000   0.
    53.75000   297.32500   0.
    54.25000   297.30000   0.
    54.50000   297.30000   0.
    54.75000   297.30000   0.
    55.25000   297.30000   0.
    55.50000   297.30000   0.
    55.75000   297.30000   0.
    56.25000   297.30000   0.
    56.50000   297.30000   0.
    56.75000   297.30000   0.
    57.25000   297.30000   0.
    57.50000   297.30000   0.
    57.75000   297.30000   0.
    58.25000   297.30000   0.
    58.50000   297.30000   0.
    58.75000   297.30000   0.
    59.22000   297.30000   0.
    59.44000   297.30000   0.
    59.66000   297.30000   0.
    59.88000   297.30000   0.
    60.32500   297.32500   0.
    60.55000   297.35000   0.
    60.77500   297.37500   0.
    61.25000   297.40000   0.
    61.50000   297.40000   0.
    61.75000   297.40000   0.
    62.22000   297.40000   0.
    62.44000   297.40000   0.
    62.66000   297.40000   0.
    62.88000   297.40000   0.
    63.32500   297.42500   0.
    63.55000   297.45000   0.
    63.77500   297.47500   0.
    64.25000   297.50000   0.
    64.50000   297.50000   0.
    64.75000   297.50000   0.
    65.22000   297.52000   0.
    65.44000   297.54000   0.
    65.66000   297.56000   0.
    65.88000   297.58000   0.
    66.32500   297.62500   0.
    66.55000   297.65000   0.
    66.77500   297.67500   0.
    67.25000   297.72500   0.
    67.50000   297.75000   0.
    67.75000   297.77500   0.
    68.25000   297.82500   0.
    68.50000   297.85000   0.
    68.75000   297.87500   0.
    69.22000   297.90000   0.
    69.44000   297.90000   0.
    69.66000   297.90000   0.
    69.88000   297.90000   0.
    70.32500   297.92500   0.
    70.55000   297.95000   0.
    70.77500   297.97500   0.
     0.28000   276.34500   0.
     1.16000   276.31750   0.
     2.92250   276.16000   0.
     3.80500   276.03000   0.
     4.68750   275.90000   0.
     6.45000   275.70250   0.
     7.33000   275.63500   0.
     8.21000   275.56750   0.
     9.97000   275.38500   0.
[...]
POINT_DATA     10229
CELL_DATA     19939
SCALARS Magnitude(ohm.m) double 1
LOOKUP_TABLE default
            24.62296            18.63349            27.56435            19.38696            18.88569            18.09177            24.45729            26.88184            19.48523            26.35098            23.95357            27.17120            18.58216            26.75543            18.29789            18.38867            20.74073            22.51829            18.99800            26.05226            25.96077            18.51271            21.79882            24.17278            18.19584            25.02140            26.22373            22.05238            20.31752            18.63574            24.94011            24.01258            21.98474            18.56362            26.96963            17.94969            28.60341            23.84283            24.74040            18.81484            19.70404            27.15987            25.62287            25.47213            27.84865            20.19486            21.40836            23.80152            25.82909            24.63793            25.57828            26.52375            27.66196            28.19623            19.79802            28.36927            19.10765            26.58973            27.42821            17.90412            27.63696            18.38531            28.36979            24.12639            23.84847            22.37149            22.35629            28.28604            22.92315            25.28679            23.53474            20.03354            24.08297            26.74836            23.01886            24.87335            25.13584            22.64007            24.31863            27.58128            21.19687            19.17724            27.37433            18.20443            18.18186            25.37203            19.05277            20.91269            27.71504            28.68340            21.97138            25.12277            27.82172            23.27086            26.16720            23.46624            26.44743            26.34199            20.07281            25.88474            27.06688            24.54719            22.94256            29.03548            28.42464            28.02996            27.76150            25.38493            18.16048            19.33602            25.64648            27.30239            26.87681            26.46069            27.72595            24.62046            23.61858            27.25218            27.77900            27.63231            19.23854            18.79671            18.53915            19.00176            21.23746            19.78646            18.82507            18.45854            27.04402            29.27284            19.59395            27.46066            26.93680            26.83890            26.51653            20.23761            18.34081            18.36976            21.66851            20.83908            26.90711            18.54187            18.35163            24.31640            19.43261            29.23492            27.77689            27.63614            20.06146            22.13526            22.62572            18.82325            23.11252            19.05484            20.16707            20.14340            25.14664            26.42635            19.49226            27.46135            18.29105            25.25366            21.34146            20.93486            24.75473            18.35636            20.44297            19.42786            28.73232            20.54872            23.53575            21.78642            28.26104            28.69602            26.40055            22.25874            18.46832            22.76095            20.85563            19.28807            20.16680            27.54898            25.51844            18.30913            18.68607            28.81906            29.13567            24.88628            23.08551            25.76156            18.42118            18.15436            19.45558            21.79388            18.44088            25.60824            19.19998            23.22534            18.61902            18.12838            25.50853            19.26457            26.14382            18.52151            29.00476            19.47554            26.11595            21.29361            18.35903            18.71848            19.71385            28.01301            23.22675            29.18092            20.98945            18.35770            20.48559            18.51025            18.44573            26.80565            20.92072            20.55267            25.38631            19.79368            18.60441            22.36028            18.81361            20.01335            19.24410            26.09921            28.81101            18.62920            24.72544            18.02747            20.46447            36.46164            55.08420            54.97696            28.30268            28.50656            34.25523            22.70611            42.84151            51.89476            22.52629            35.15832            27.96981            66.21011            20.12463            33.25922            40.17268           120.18921            22.04334            36.27694            33.27359            32.62022            23.65604            42.26976            20.29523            34.09727            40.39979            48.27304            27.07115            34.85247            22.57344            56.39837            40.11766            31.91201            32.82293            35.90839            27.39202            29.41136            27.69249            52.61068            47.94331            22.34470            30.42881            44.18434            34.97170            23.62367            22.71115            48.15898            34.32947            19.68485            20.52544            32.58739            37.62843            33.49291            33.31093            51.89774            29.53756            30.86661            47.60603            23.00571           102.82321            25.99579            34.93551            40.73145            37.02051            34.34051            20.58704            30.00732            33.64331            32.79393            32.48250            97.20111            44.68019            45.95482            21.22258            34.11719            33.26699            37.17208            36.74101            39.55014            33.60389            46.51019            21.54689            37.12799            52.03280            56.61030            34.60238            47.70253            27.01840            26.01217            34.73855            43.09753            58.25601            30.98136            21.81392            27.22869            33.47199            34.37888            35.60548            48.88337            29.53198            21.53455            34.13993            32.21209            51.67796            28.44337            27.54599            41.83774            96.68711            33.46659            47.89705            20.46749            37.92910            50.97472            46.05409            39.09234            27.48703            21.96658            25.56080            40.81556            48.99427            20.22455            47.43799            33.81706            30.49269            36.56307            32.62037            25.88053            27.89737            32.06861            39.88925            20.85496            43.63774            38.99612            39.28296            19.75071            43.19230            32.02791            47.59102            38.03639            93.28483            23.44301            40.99319            46.77205            48.74071            38.01971            31.48197            55.09574           113.61658            33.62046            45.36000            25.77573            41.40505            46.62549            34.28506            28.03449            32.69144            26.14649            28.17436            44.18322            32.30515            30.18499            33.00617            30.21125            33.38498            22.43766            34.42789            23.56044            93.03320            25.76006            38.30538            35.90020            38.94568            22.83982            21.76203            31.06849            27.35616            25.56904            34.21886            32.15995            30.51274            96.04579            35.01694            30.77631            25.89493            29.70694            36.50156            23.14866            54.90359            91.25579            29.25954            34.52556            41.32070            41.39170            25.25529            51.65344            42.95005            32.84607            35.03294            34.66754            33.46720            47.58843            38.26640            25.37505            39.21501            35.37861            35.95739            26.30379            43.35264            35.50126            95.24529            30.70271            54.20898            38.21260            41.97655            30.69106            26.26710            25.94327            23.97754            35.71533            33.41350            39.30411            35.70906            35.13023            47.54965            40.51148            36.59712            48.87368            41.49276            34.12649            27.77236            26.50410            42.65936            22.45530            29.94254            43.22516            35.18266            30.96576            33.86360            37.07093            31.36472            26.28527            39.34595            34.98660            42.60496            27.37323            33.78032            26.90441            29.90124            51.25983            29.72970            34.03736            31.17373            32.39914            30.57220            56.82266            43.98711            48.09276            37.29314            27.80045            41.00709            28.54348            94.29481            25.80067            28.09029            39.13914            35.13302            33.67550            52.90661            27.93954            25.27124            26.87085            29.73404            29.52091            25.86544            33.15887            31.04034            36.76339            26.51371            37.70725            35.29681            27.67322            38.00357            37.17297            30.02235            44.95884            27.46087            51.83475            34.18530            56.48536            29.55819            24.98046            25.21066            58.34729            29.34526            30.06532            43.34471            40.01874            28.48867            42.50929            29.07825            33.95090            23.77771            34.77588            28.67068            34.21488            44.35607            33.52725            34.36148            27.17483            31.84351            52.26332            32.17508            37.22256            97.98483            49.41400            33.08925            38.31402            27.94356            22.03128            27.45374            21.15455            26.11283            22.25405            44.19832            36.94014            49.39952            25.44587            30.99793            21.57538            30.95338            87.88509            41.42814            26.29072            33.33247            32.56789            24.22738            27.28086            35.09076            33.61299            22.26673            35.34076            93.35811            40.42285            97.23427            30.53953            27.34865            37.07087            43.15920            35.43855            31.73416            19.95275            49.23564            55.80156            26.50609            32.29953            35.01189            38.41772            34.44339            22.34947            32.54174            43.01720            40.06300            71.32524            42.38876            56.71275            38.79934            45.54915            42.56239            33.52325            43.28900            31.32438            30.15850            39.22016            29.26362            30.50620            32.41715            28.06807            26.15003            48.31428            25.50608            41.90731            42.52115            36.12316            35.82714            26.09849            35.75271            22.80865            33.15866            28.41670            64.80614            47.92700            42.14485            26.08398            27.45606            26.71329            47.68181            23.73312            20.47660            31.87688            35.63393            22.60039            56.27489            34.08747            52.37491            24.75105            30.91782            51.10556            32.28351            75.17222            19.48576            35.00057            41.77594            33.57571            30.22550            28.16591            24.52986            27.57668            35.14951            35.72961            33.26591            48.25488            41.46800            95.60339            33.37055            76.83940            26.11020            43.14049            26.37045            29.87792            45.12467            41.81343            57.98617            33.31473            34.90891            36.55423            37.96233            34.58057            23.90572            34.49019            50.32206            36.91928            49.19214            19.76940            28.38018            32.45842            27.31766            30.88792            52.25182            54.17625            41.49920            32.81418            52.96530            34.66624            45.02911            22.32044            24.17224            28.59235            43.28123            42.32081            48.51208            29.08832            38.41281            28.76702            31.14176            26.75628            42.83771            33.47460            30.51402            28.22540            31.15901            30.81048            27.23601            31.57699            25.41080            41.99970            41.88389            56.23886            47.18562            32.79164            52.89702            29.01218            33.89290            43.56307            34.59627            36.23084            22.44160            19.97613            44.23985            28.16095            30.52916            28.21497            24.89067            28.64914            29.13877            42.87609            30.22625            35.45512            21.04782            38.80182            54.31211            45.30834            26.94220            40.05522            43.37460            37.40240            28.24210            41.56306            22.18792            29.97424            36.19172            40.19816            48.41755            57.47474            55.29925            26.32046            32.74830            29.04743            23.41730            30.92268            26.71134            40.38753            35.73024            30.32346            32.15443            35.34631            39.96152            35.38048            29.43781            42.09578            33.52865            47.11978            28.37718            40.16994            33.27728            28.97284            27.09440            28.18395            57.21731            30.97399            28.43721            66.79517            30.82490            52.00934            40.32515            30.71874            32.31651            47.94497            27.49225            35.69247            29.90267            23.27241            48.88470            58.88663            33.66187            36.59646            41.32738            29.24448            45.62218            29.03261            36.92311            28.96872            33.62755            22.41013            29.53242            41.03467            23.21171            37.11763            50.76956            20.15619            27.84450            34.47241            22.78208            36.22241            47.67218            95.96675            40.61009            36.27791            31.07422            22.50427            29.66434            31.01363            48.66655            39.15409            37.56793            23.16723            24.51132            52.02523            33.34498            39.14544            34.77710            26.31229            43.24488            51.68233            41.76525            39.40021            39.57960            30.79968            50.76352            27.65464            23.16147            52.49027            29.25602            28.19878            40.76927            48.87742            27.13057            29.20846            23.24350            36.77297            57.60915            40.90654            25.82737            28.06862            27.79741            32.74435            42.22847            23.63468            40.47372            33.76359            36.38407            47.26531            36.17575            35.13069            27.81035            40.61364            40.78548            32.64773            31.10664            28.86025            30.84783            58.29039            35.52933            56.72659            49.35209            38.71797            45.14291            48.63160            47.88940            34.62293            22.55148            34.55318            27.89209            39.81993            52.25358            40.44614            32.90781            34.55349            30.12005            36.40779            48.58488            38.49238            37.03412            29.96450            36.44599            30.41308            35.74419            37.39532            28.54262            38.33811            41.01153            57.13083            24.35250            37.58108            34.43173            38.39163            41.71019            38.34093            35.09353            47.42215            31.95910            39.87561            51.21593            39.88186            35.11436            25.52713            33.37296            33.98681            33.49053            34.01929            23.05212            52.85139            42.81497            33.89769            33.16694            36.28238            36.61670            44.90749            51.07070            51.58458            36.27199            29.58202            28.41315            33.30370            25.31624            48.81023            29.21735            25.33573            33.26886            34.92846            43.82123            23.90248            67.73253            35.49456            44.30783            43.43568            36.13030            28.24601            37.89046            34.43027            30.75751            48.89365            34.17833            37.82363            32.13293            35.63637            27.67187            23.10694            26.37543            34.61765            45.40732            33.56891            35.13490            29.75819            37.01854            34.65419            77.88484            22.06658            47.54716            16.24873            25.84506            43.39469            32.69451            43.11884            40.67442            43.30994            29.15722            19.93309            42.29190            45.89527            27.66607            49.53440            38.85173            27.65580            26.40670            43.22747            69.43311            36.59024            48.12627            29.97923           112.79524            57.75115            24.98399            32.83979            36.84335            30.52241            34.71195            30.00168            38.06302            29.42497           108.72130    