# vtk DataFile Version 3.0
Output from cR2
ASCII
DATASET UNSTRUCTURED_GRID
POINTS       7910 double
     0.00000   279.90000   0.
     1.00000   279.90000   0.
     2.00000   279.90000   0.
     2.90000   279.80000   0.
     4.00000   279.80000   0.
     5.00000   279.70000   0.
     6.00000   279.70000   0.
     7.00000   279.60000   0.
     7.90000   279.60000   0.
     8.90000   279.50000   0.
     9.90000   279.40000   0.
    10.90000   279.40000   0.
    11.90000   279.30000   0.
    12.90000   279.30000   0.
    13.90000   279.20000   0.
    14.90000   279.20000   0.
    15.90000   279.10000   0.
    16.90000   279.10000   0.
    17.90000   279.00000   0.
    18.90000   278.90000   0.
    19.80000   278.90000   0.
    20.80000   278.90000   0.
    21.80000   278.80000   0.
    22.90000   278.80000   0.
    23.90000   278.70000   0.
    24.80000   278.70000   0.
    25.90000   278.60000   0.
    26.90000   278.60000   0.
    27.90000   278.50000   0.
    28.90000   278.40000   0.
    29.80000   278.30000   0.
    30.80000   278.30000   0.
    31.90000   278.20000   0.
    32.90000   278.10000   0.
    33.80000   278.10000   0.
    34.80000   278.00000   0.
    35.90000   277.80000   0.
    36.80000   277.70000   0.
    37.70000   277.50000   0.
    38.90000   277.50000   0.
    39.80000   277.30000   0.
    40.80000   277.30000   0.
    41.80000   277.20000   0.
    42.80000   277.20000   0.
    43.80000   277.10000   0.
    44.90000   277.00000   0.
    45.80000   277.00000   0.
    46.80000   277.00000   0.
    47.80000   276.90000   0.
    48.90000   276.90000   0.
    49.80000   276.90000   0.
    50.80000   276.80000   0.
    51.80000   276.80000   0.
    52.70000   276.80000   0.
    53.70000   276.70000   0.
    54.80000   276.70000   0.
    55.90000   276.60000   0.
    56.90000   276.70000   0.
    57.80000   276.60000   0.
    58.90000   276.60000   0.
    59.90000   276.60000   0.
    60.90000   276.60000   0.
    61.90000   276.70000   0.
    62.80000   276.70000   0.
    63.80000   276.70000   0.
    64.80000   276.70000   0.
    65.80000   276.70000   0.
    66.80000   276.70000   0.
    67.90000   276.70000   0.
    68.90000   276.70000   0.
    69.90000   276.70000   0.
    70.90000   276.70000   0.
     2.04000   254.90000   0.
     5.56000   254.70000   0.
     9.07000   254.48000   0.
    12.59000   254.30000   0.
    16.11000   254.10000   0.
    19.62000   253.90000   0.
    23.14000   253.78000   0.
    26.66000   253.60000   0.
    30.17000   253.30000   0.
    33.69000   253.10000   0.
    37.21000   252.61000   0.
    40.73000   252.30000   0.
    44.24000   252.06000   0.
    47.76000   251.90000   0.
    51.28000   251.80000   0.
    54.79000   251.70000   0.
    58.31000   251.60000   0.
    61.83000   251.69000   0.
    65.34000   251.70000   0.
    68.86000   251.70000   0.
     0.25000   279.90000   0.
     0.50000   279.90000   0.
     0.75000   279.90000   0.
     1.25000   279.90000   0.
     1.50000   279.90000   0.
     1.75000   279.90000   0.
     2.22500   279.87500   0.
     2.45000   279.85000   0.
     2.67500   279.82500   0.
     3.12000   279.80000   0.
     3.34000   279.80000   0.
     3.56000   279.80000   0.
     3.78000   279.80000   0.
     4.25000   279.77500   0.
     4.50000   279.75000   0.
     4.75000   279.72500   0.
     5.25000   279.70000   0.
     5.50000   279.70000   0.
     5.75000   279.70000   0.
     6.25000   279.67500   0.
     6.50000   279.65000   0.
     6.75000   279.62500   0.
     7.22500   279.60000   0.
     7.45000   279.60000   0.
     7.67500   279.60000   0.
     8.15000   279.57500   0.
     8.40000   279.55000   0.
     8.65000   279.52500   0.
     9.15000   279.47500   0.
     9.40000   279.45000   0.
     9.65000   279.42500   0.
    10.15000   279.40000   0.
    10.40000   279.40000   0.
    10.65000   279.40000   0.
    11.15000   279.37500   0.
    11.40000   279.35000   0.
    11.65000   279.32500   0.
    12.15000   279.30000   0.
    12.40000   279.30000   0.
    12.65000   279.30000   0.
    13.15000   279.27500   0.
    13.40000   279.25000   0.
    13.65000   279.22500   0.
    14.15000   279.20000   0.
    14.40000   279.20000   0.
    14.65000   279.20000   0.
    15.15000   279.17500   0.
    15.40000   279.15000   0.
    15.65000   279.12500   0.
    16.15000   279.10000   0.
    16.40000   279.10000   0.
    16.65000   279.10000   0.
    17.15000   279.07500   0.
    17.40000   279.05000   0.
    17.65000   279.02500   0.
    18.15000   278.97500   0.
    18.40000   278.95000   0.
    18.65000   278.92500   0.
    19.12500   278.90000   0.
    19.35000   278.90000   0.
    19.57500   278.90000   0.
    20.05000   278.90000   0.
    20.30000   278.90000   0.
    20.55000   278.90000   0.
    21.05000   278.87500   0.
    21.30000   278.85000   0.
    21.55000   278.82500   0.
    22.02000   278.80000   0.
    22.24000   278.80000   0.
    22.46000   278.80000   0.
    22.68000   278.80000   0.
    23.15000   278.77500   0.
    23.40000   278.75000   0.
    23.65000   278.72500   0.
    24.12500   278.70000   0.
    24.35000   278.70000   0.
    24.57500   278.70000   0.
    25.02000   278.68000   0.
    25.24000   278.66000   0.
    25.46000   278.64000   0.
    25.68000   278.62000   0.
    26.15000   278.60000   0.
    26.40000   278.60000   0.
    26.65000   278.60000   0.
    27.15000   278.57500   0.
    27.40000   278.55000   0.
    27.65000   278.52500   0.
    28.15000   278.47500   0.
    28.40000   278.45000   0.
    28.65000   278.42500   0.
    29.12500   278.37500   0.
    29.35000   278.35000   0.
    29.57500   278.32500   0.
    30.05000   278.30000   0.
    30.30000   278.30000   0.
    30.55000   278.30000   0.
    31.02000   278.28000   0.
    31.24000   278.26000   0.
    31.46000   278.24000   0.
    31.68000   278.22000   0.
    32.15000   278.17500   0.
    32.40000   278.15000   0.
    32.65000   278.12500   0.
    33.12500   278.10000   0.
    33.35000   278.10000   0.
    33.57500   278.10000   0.
    34.05000   278.07500   0.
    34.30000   278.05000   0.
    34.55000   278.02500   0.
    35.02000   277.96000   0.
    35.24000   277.92000   0.
    35.46000   277.88000   0.
    35.68000   277.84000   0.
    36.12500   277.77500   0.
    36.35000   277.75000   0.
    36.57500   277.72500   0.
    37.02500   277.65000   0.
    37.25000   277.60000   0.
    37.47500   277.55000   0.
    37.94000   277.50000   0.
    38.18000   277.50000   0.
    38.42000   277.50000   0.
    38.66000   277.50000   0.
    39.12500   277.45000   0.
    39.35000   277.40000   0.
    39.57500   277.35000   0.
    40.05000   277.30000   0.
    40.30000   277.30000   0.
    40.55000   277.30000   0.
    41.05000   277.27500   0.
    41.30000   277.25000   0.
    41.55000   277.22500   0.
    42.05000   277.20000   0.
    42.30000   277.20000   0.
    42.55000   277.20000   0.
    43.05000   277.17500   0.
    43.30000   277.15000   0.
    43.55000   277.12500   0.
    44.02000   277.08000   0.
    44.24000   277.06000   0.
    44.46000   277.04000   0.
    44.68000   277.02000   0.
    45.12500   277.00000   0.
    45.35000   277.00000   0.
    45.57500   277.00000   0.
    46.05000   277.00000   0.
    46.30000   277.00000   0.
    46.55000   277.00000   0.
    47.05000   276.97500   0.
    47.30000   276.95000   0.
    47.55000   276.92500   0.
    48.02000   276.90000   0.
    48.24000   276.90000   0.
    48.46000   276.90000   0.
    48.68000   276.90000   0.
    49.12500   276.90000   0.
    49.35000   276.90000   0.
    49.57500   276.90000   0.
    50.05000   276.87500   0.
    50.30000   276.85000   0.
    50.55000   276.82500   0.
    51.05000   276.80000   0.
    51.30000   276.80000   0.
    51.55000   276.80000   0.
    52.02500   276.80000   0.
    52.25000   276.80000   0.
    52.47500   276.80000   0.
    52.95000   276.77500   0.
    53.20000   276.75000   0.
    53.45000   276.72500   0.
    53.92000   276.70000   0.
    54.14000   276.70000   0.
    54.36000   276.70000   0.
    54.58000   276.70000   0.
    55.02000   276.68000   0.
    55.24000   276.66000   0.
    55.46000   276.64000   0.
    55.68000   276.62000   0.
    56.15000   276.62500   0.
    56.40000   276.65000   0.
    56.65000   276.67500   0.
    57.12500   276.67500   0.
    57.35000   276.65000   0.
    57.57500   276.62500   0.
    58.02000   276.60000   0.
    58.24000   276.60000   0.
    58.46000   276.60000   0.
    58.68000   276.60000   0.
    59.15000   276.60000   0.
    59.40000   276.60000   0.
    59.65000   276.60000   0.
    60.15000   276.60000   0.
    60.40000   276.60000   0.
    60.65000   276.60000   0.
    61.15000   276.62500   0.
    61.40000   276.65000   0.
    61.65000   276.67500   0.
    62.12500   276.70000   0.
    62.35000   276.70000   0.
    62.57500   276.70000   0.
    63.05000   276.70000   0.
    63.30000   276.70000   0.
    63.55000   276.70000   0.
    64.05000   276.70000   0.
    64.30000   276.70000   0.
    64.55000   276.70000   0.
    65.05000   276.70000   0.
    65.30000   276.70000   0.
    65.55000   276.70000   0.
    66.05000   276.70000   0.
    66.30000   276.70000   0.
    66.55000   276.70000   0.
    67.02000   276.70000   0.
    67.24000   276.70000   0.
    67.46000   276.70000   0.
    67.68000   276.70000   0.
    68.15000   276.70000   0.
    68.40000   276.70000   0.
    68.65000   276.70000   0.
    69.15000   276.70000   0.
    69.40000   276.70000   0.
    69.65000   276.70000   0.
    70.15000   276.70000   0.
    70.40000   276.70000   0.
    70.65000   276.70000   0.
    -0.30667   254.90000   0.
     0.86667   254.90000   0.
     3.21333   254.83333   0.
     4.38667   254.76667   0.
     6.73000   254.62667   0.
     7.90000   254.55333   0.
    10.24333   254.42000   0.
    11.41667   254.36000   0.
    13.76333   254.23333   0.
    14.93667   254.16667   0.
    17.28000   254.03333   0.
    18.45000   253.96667   0.
    20.79333   253.86000   0.
[...]
POINT_DATA      7910
CELL_DATA     15352
SCALARS Magnitude(ohm.m) double 1
LOOKUP_TABLE default
            21.07860            22.46884            24.18993            25.42748            23.47611            21.34471            24.62687            20.75901            25.45405            24.08941            23.31802            24.84801            21.87183            23.86650            18.55217            25.22759            21.38292            24.51349            21.63699            21.51817            25.14823            24.61989            20.59009            22.23845            22.75124            23.05121            24.55392            24.88526            23.86962            23.45205            24.79188            24.45624            22.03265            20.48079            21.25827            20.82036            25.17625            22.27035            24.67226            22.93806            22.20435            20.76260            16.25321            20.55792            17.74550            23.26209            18.52439            19.32627            21.11330            20.20639            24.52454            23.93679            14.32387            25.66090            25.65014            25.17929            21.62606            14.92614            23.37620            16.99030            13.84016            19.67758            24.44391            25.81490            12.21329            23.89663            21.07787            12.45888            13.12928            12.77305            25.89327            24.86960            25.35002            18.07607            18.85306            20.58344            21.91070            23.47330            24.48628            22.56195            25.40988            17.31634            23.62456            25.89637            14.58441            24.15519            25.25294            14.05189            24.08046            25.63793            22.82877            21.34081            20.98048            24.61850            20.81074            17.83385            15.23421            20.54106            16.57012            25.75521            21.81250            22.82872            25.05624            25.78501            15.87426            22.48642            13.62240            25.64523            21.43266            23.05641            23.34372            25.17137            25.74432            22.32767            13.29784            24.98305            25.82558            24.68849            15.57826            13.46263            22.79171            25.05767            25.08524            22.12091            24.66809            24.59634            25.10300            21.87189            23.26635            25.07481            22.91910            22.43275            25.06091            24.47835            24.65873            24.85112            19.22032            23.53801            22.53032            23.91407            24.65056            22.78565            24.07277            25.00904            21.65358            23.82756            24.38723            25.00864            17.18076            22.06381            24.00054            24.25053            24.87099            11.58239            17.74232            11.58618            10.92981            10.00819            12.68990            25.96615            28.24009            29.99145            14.06558            11.70208            14.88520            21.72337            17.62722            13.88229             9.91875            11.62996            20.16637            16.42144            17.52814            17.85721            27.88901            15.02820            13.48116            17.64864            13.93272            19.41563            23.02191            14.75083            24.66428            16.43859            19.91444            11.79263            22.89602            21.65626             8.60137            12.31147            16.55912            14.13263            16.68133            24.17299            25.40921            24.01480            13.65654            23.60136            30.38462            10.65313            26.95084            19.88289            18.24785            14.35628            18.09829            22.07882            15.17321             9.76672            17.16300            10.84865            10.20725            15.22751            17.35737            20.26166            13.53676            13.38358             8.64521            14.25306            12.41526            11.24953            11.65850            10.95787            13.57206            24.80717            20.07764            22.68523             9.76788            11.95534            17.84718             9.54578            19.62695            10.81728            10.74395            16.84845             9.28806            32.07427            17.77671            15.35767            13.69130            23.38735            14.74465            18.44301            17.61825            14.06208            13.90013            18.67052            26.94692            18.95200            13.41131            18.70601            17.88228            21.29153            18.77868            14.35022            30.13277            11.26225            34.33498            17.70700            13.90764            18.55620            12.19448            10.65868            11.48079            19.48379            28.71584            11.79110            21.23574            18.54996             9.83205            14.54306            16.52622            13.07950            12.12790            21.32354            19.61179            16.79927            24.21767            14.24267            12.26688            11.67442            13.89357            15.58401            26.15922            17.86093            17.18610            18.79249            15.12263            34.15882            11.10513            17.03828             9.74165            10.26997            11.18188            22.34419            17.43455            19.84231            17.60551            14.22413            24.11695            14.12374            17.19997            19.14702            15.25261             9.22757            18.00835            24.10854            10.24944            19.72822            23.72234            10.41664            14.54656            17.20531             9.94403            13.80105            27.18175            17.07962            17.43744            17.47059            17.13230            20.72194             8.64866            16.54855            21.59445             8.75633            15.09052            25.78191            11.98080            29.70300            20.37756            13.56679            10.63320            25.74988            13.60523            13.08123             9.19747             9.94901            22.78408            22.16301            18.68285            16.53661            19.94182            16.70452            16.00179             8.72846            12.81202            14.78459            13.59226            11.71622            10.84651            14.41892            12.21712            27.18518            17.59570             9.75619            15.35844            15.79831            19.81216            15.56430             8.03659            22.44419            13.81112            18.65326            17.30958            11.23803            16.01962            20.20381            17.46690            18.02498            27.21099            12.29590            11.35359            11.00910            14.33481            17.54098            27.71795            12.37667            12.85336            18.96434            17.46276            11.89765            17.24182            12.09849            20.93970            13.82342            24.00353            13.37479            19.76992            22.54064            24.26809            21.53964            17.20307            16.23572            13.57066            15.85271            16.62553            17.69901            12.28730             9.70596            19.26956            22.95353            17.51223            20.31649            24.78806            22.78446            17.62123            11.89728            15.90225            11.31490            11.57414            21.74064            18.21959            13.12791            17.58620            15.34151            23.23131             9.65819            18.93438            17.82633            20.15182            11.42570            20.29030            26.02258            21.46790            15.66001            11.44093            11.99535             9.75340            12.81074            22.90141            42.42852            13.35053            12.49737            26.83039            11.84209            18.15836            10.22487            22.26763            14.72379            18.72311            17.63735            17.57939            11.83606             8.56170            13.01093            11.08144             7.84584            18.86765            16.86794            14.21391            11.14017            13.62461            30.25559            22.84260            14.21199            13.18846            17.00246            28.05526            11.18844            27.60353            11.56119            15.35818            19.51001            22.12213            19.65304            11.78604            22.82772            19.32167            27.56967            23.20306            11.02362            17.84754            11.22161             9.10130            17.43982            11.39984            14.95438            17.42250            13.73768            15.81723            16.96279            16.46737            18.63146            13.77190            13.08345            13.23440            18.65611             7.87857            18.28182            13.91677            23.80074            13.45546             8.80497            25.94457            21.86563             9.58856             9.67446            18.80605            16.34976            15.37111            19.80599            18.96329            16.18980             7.88948            15.96157            13.62070            20.13592            11.01648            19.44651            20.39059            10.79038             8.17257            19.99277            19.43466            18.19421            17.87899            15.80713            23.22550            17.08515            13.07534            27.37972            11.17183            20.42550            11.15227            22.40575             9.27654            22.38932             9.92068            42.45079            23.16025            15.45703            18.93681            10.31065            21.39136            16.02047            17.86901            12.97498            17.44629            18.14651            19.03344            17.66475            17.78172            13.93886            14.40500            12.48578            20.74784            10.20760            23.78468            19.11793            12.28421            12.38627            17.79260            21.69215            11.14834            13.27838            12.64505            12.68996            28.56277            24.07028            26.43149            28.03432            13.02832            11.03581            10.56728             9.46520            11.58318            29.71618            24.46901            19.27956            10.11492            16.73032            16.37650            19.89786             9.88282            14.67624            14.38925             8.62810            21.85532            12.21867            13.88678            15.14532            13.05404            16.32278            20.57368            12.37588            21.15893            11.61245            24.25288            14.58733            20.44381            27.88430            15.47893            13.64922            12.71617            11.47707            12.89878            13.82992            11.10207            10.67797            15.97712            18.67034            24.15196            15.11728             9.02489            11.01070             8.81155            13.97301            10.71467            18.90684            21.91759            23.84598            25.21365            18.80495             8.36447            17.36777            13.38409            11.01800             9.61006            18.97400            20.35518            14.14325            18.59918            14.16491            22.24096            10.25102            18.81408            10.27682            18.91094            13.33094            12.56773            20.64534            20.35856            18.95154            17.97268            27.45953            15.80534            13.24836            10.21682            12.27168            26.92774            12.01310            25.16858            25.64316            25.71969            18.66468            25.25774            13.98417             8.11869             8.51332            17.84450            17.75674            15.01676            12.61351            11.41654            28.37106            13.50979            16.80723             9.59339            12.37436            15.47902            17.16927            22.89128            13.08189            12.17788            21.20595            31.10693            13.70598            11.52344            18.67744            12.41955            16.97316            29.58534             9.41603            13.08224            15.30620            18.38714            10.65285            11.54113            18.71531            12.32221            14.74014            24.23541            31.71101            24.92071            23.69345             7.90680            11.23258             9.84766            15.23246            22.28828            13.21300            18.67279            19.61672            16.51604            15.84227            25.00049            24.77739            13.34225            19.67363            18.05134            11.86365            14.17571            14.19758            11.70618            23.81888            25.91815            12.97120            22.85033            10.58155            21.52578            16.96609            12.92923            11.45712            14.60947            19.00981            26.23266            17.75334             8.05724            22.53816             9.28265            17.07446            15.00016            19.73921            10.01345            16.02843            14.69231            18.58829            23.05595            17.98121            14.27965            18.61120             9.70933            22.21589             9.94915            22.34086            10.73323            29.02328            13.21671            14.16079            10.23920            10.34266            17.95414            16.24979            13.44861            24.89051            26.96385            11.10184            11.07703            10.60664            26.28360            10.30670            12.30597            22.82104            12.69476            16.19993            26.06690            24.45261            26.45162            16.85761            22.39135            11.79658            10.73995            12.49585            16.37337            18.92031            12.76503            22.59040            11.51335            20.68471            22.03336            24.74738            27.99743            21.05789            17.12127            17.58349            23.21947            13.47159            13.82119            30.27949            22.86455            16.76260            25.15241             9.24649            10.58521            14.32151            21.54690            20.98671            17.36429            12.37155            16.68517            11.32657            19.79429            19.42666            12.95919            14.91488            14.08522            20.09020            12.70695            12.40038            14.82527            16.34598            27.67068            10.98324            30.57512            10.17661            24.32713            22.06678            13.71854            12.33789            18.44016            15.59422            22.15620            39.50983            33.17566            11.87696            11.02454            13.37470            26.18296            11.98516            16.03402            17.46587            27.25335             7.89432            15.93086            15.17160             9.18845            11.06990            14.38974             9.14996            19.20863            12.38060            15.27431            10.08731            19.58156            21.75431            15.18068            19.20350            11.80884            19.77964             8.67370            24.49918            19.10668            14.24095            11.62114            20.07560            12.67988            11.86573            13.38060            18.83222            16.09961            12.16877            11.69840            11.74766            10.79860            22.93718            19.41454            22.81010            12.14185            21.47619            19.78232             9.77808            17.44973            16.28737            33.79580            18.04115            22.30879            21.89489            22.12858            16.66067            14.90038            27.38542            12.89908            22.21110            25.14190            27.09721            15.78978            20.28662            18.38856            16.43309             8.25746            14.07832            21.51653            12.65627            11.21217            15.28159            18.81011            14.74287            20.29745            17.63518            21.55823            12.57778            19.54811             9.21345            25.29477            13.26837            13.53537            11.73626            12.67009            17.69918            15.63818            26.65132            17.94989            23.68168            25.30414            12.22410            17.06233            16.68502            14.86645            20.61519            12.12529            12.51776            22.69023            14.44663            29.83394            19.08525            11.25821             9.05802            20.06970            44.66713            15.75348            12.69735            20.86763            15.69639            11.36065            13.78586            12.62996            11.00677            18.54422            12.13769            11.68523             8.48891             9.12030            23.79213            25.90443            10.93911            18.47615            17.62557            14.93145            24.84598            21.78721            11.32334            12.91431             9.99054            15.62349            10.49677            18.72469            13.92054            12.50040            17.73258            14.15236            12.53713            14.96343            18.08152            10.22572            17.84880            26.56572            17.24872            15.42120            21.10191            16.47899            26.08176            10.05014            10.16553            14.16829            19.69405             9.60405            19.85944            10.85521            11.01924            22.89584            21.28737            10.17284            18.17520             8.91612            10.96301            10.53449            22.09956            11.51197            21.50206            11.00247            24.36992            32.36419            13.24876            20.39071            14.44120            16.28276            11.61852            18.70300            15.16865             9.80081            11.37615            12.67763            14.44965            18.37771            14.15155             8.51853    