# vtk DataFile Version 3.0
Output from cR2
ASCII
DATASET UNSTRUCTURED_GRID
POINTS       7761 double
     0.00000   279.20000   0.
     1.00000   279.20000   0.
     1.90000   279.20000   0.
     2.90000   279.20000   0.
     3.90000   279.20000   0.
     4.90000   279.10000   0.
     5.70000   279.00000   0.
     6.70000   279.00000   0.
     7.70000   279.10000   0.
     8.70000   279.10000   0.
     9.70000   279.10000   0.
    10.60000   279.00000   0.
    11.60000   278.90000   0.
    12.60000   278.90000   0.
    13.60000   278.80000   0.
    14.60000   278.70000   0.
    15.70000   278.70000   0.
    16.60000   278.60000   0.
    17.60000   278.60000   0.
    18.60000   278.50000   0.
    19.60000   278.50000   0.
    20.60000   278.50000   0.
    21.60000   278.40000   0.
    22.60000   278.40000   0.
    23.60000   278.30000   0.
    24.60000   278.30000   0.
    25.60000   278.30000   0.
    26.60000   278.30000   0.
    27.60000   278.20000   0.
    28.60000   278.20000   0.
    29.60000   278.10000   0.
    30.60000   278.10000   0.
    31.60000   278.10000   0.
    32.60000   278.10000   0.
    33.60000   278.00000   0.
    34.60000   278.00000   0.
    35.60000   277.80000   0.
    36.60000   277.60000   0.
    37.60000   277.50000   0.
    38.60000   277.40000   0.
    39.60000   277.40000   0.
    40.60000   277.30000   0.
    41.50000   277.30000   0.
    42.60000   277.20000   0.
    43.60000   277.20000   0.
    44.60000   277.20000   0.
    45.60000   277.10000   0.
    46.60000   277.10000   0.
    47.50000   277.10000   0.
    48.60000   277.10000   0.
    49.60000   277.00000   0.
    50.60000   277.00000   0.
    51.50000   276.90000   0.
    52.60000   276.90000   0.
    53.60000   276.80000   0.
    54.50000   276.80000   0.
    55.50000   276.80000   0.
    56.50000   276.70000   0.
    57.60000   276.70000   0.
    58.50000   276.60000   0.
    59.50000   276.60000   0.
    60.60000   276.60000   0.
    61.50000   276.50000   0.
    62.50000   276.40000   0.
    63.60000   276.40000   0.
    64.50000   276.30000   0.
    65.60000   276.30000   0.
    66.60000   276.20000   0.
    67.60000   276.20000   0.
    68.50000   276.10000   0.
    69.50000   276.10000   0.
    70.50000   276.00000   0.
     2.03000   254.20000   0.
     5.53000   254.02000   0.
     9.02000   254.10000   0.
    12.52000   253.90000   0.
    16.02000   253.66000   0.
    19.51000   253.50000   0.
    23.01000   253.36000   0.
    26.51000   253.30000   0.
    30.00000   253.10000   0.
    33.50000   253.01000   0.
    37.00000   252.56000   0.
    40.50000   252.31000   0.
    43.99000   252.20000   0.
    47.49000   252.10000   0.
    50.99000   251.96000   0.
    54.48000   251.80000   0.
    57.98000   251.66000   0.
    61.48000   251.50000   0.
    64.97000   251.30000   0.
    68.47000   251.10000   0.
     0.25000   279.20000   0.
     0.50000   279.20000   0.
     0.75000   279.20000   0.
     1.22500   279.20000   0.
     1.45000   279.20000   0.
     1.67500   279.20000   0.
     2.15000   279.20000   0.
     2.40000   279.20000   0.
     2.65000   279.20000   0.
     3.15000   279.20000   0.
     3.40000   279.20000   0.
     3.65000   279.20000   0.
     4.15000   279.17500   0.
     4.40000   279.15000   0.
     4.65000   279.12500   0.
     5.10000   279.07500   0.
     5.30000   279.05000   0.
     5.50000   279.02500   0.
     5.95000   279.00000   0.
     6.20000   279.00000   0.
     6.45000   279.00000   0.
     6.95000   279.02500   0.
     7.20000   279.05000   0.
     7.45000   279.07500   0.
     7.95000   279.10000   0.
     8.20000   279.10000   0.
     8.45000   279.10000   0.
     8.95000   279.10000   0.
     9.20000   279.10000   0.
     9.45000   279.10000   0.
     9.92500   279.07500   0.
    10.15000   279.05000   0.
    10.37500   279.02500   0.
    10.85000   278.97500   0.
    11.10000   278.95000   0.
    11.35000   278.92500   0.
    11.85000   278.90000   0.
    12.10000   278.90000   0.
    12.35000   278.90000   0.
    12.85000   278.87500   0.
    13.10000   278.85000   0.
    13.35000   278.82500   0.
    13.85000   278.77500   0.
    14.10000   278.75000   0.
    14.35000   278.72500   0.
    14.82000   278.70000   0.
    15.04000   278.70000   0.
    15.26000   278.70000   0.
    15.48000   278.70000   0.
    15.92500   278.67500   0.
    16.15000   278.65000   0.
    16.37500   278.62500   0.
    16.85000   278.60000   0.
    17.10000   278.60000   0.
    17.35000   278.60000   0.
    17.85000   278.57500   0.
    18.10000   278.55000   0.
    18.35000   278.52500   0.
    18.85000   278.50000   0.
    19.10000   278.50000   0.
    19.35000   278.50000   0.
    19.85000   278.50000   0.
    20.10000   278.50000   0.
    20.35000   278.50000   0.
    20.85000   278.47500   0.
    21.10000   278.45000   0.
    21.35000   278.42500   0.
    21.85000   278.40000   0.
    22.10000   278.40000   0.
    22.35000   278.40000   0.
    22.85000   278.37500   0.
    23.10000   278.35000   0.
    23.35000   278.32500   0.
    23.85000   278.30000   0.
    24.10000   278.30000   0.
    24.35000   278.30000   0.
    24.85000   278.30000   0.
    25.10000   278.30000   0.
    25.35000   278.30000   0.
    25.85000   278.30000   0.
    26.10000   278.30000   0.
    26.35000   278.30000   0.
    26.85000   278.27500   0.
    27.10000   278.25000   0.
    27.35000   278.22500   0.
    27.85000   278.20000   0.
    28.10000   278.20000   0.
    28.35000   278.20000   0.
    28.85000   278.17500   0.
    29.10000   278.15000   0.
    29.35000   278.12500   0.
    29.85000   278.10000   0.
    30.10000   278.10000   0.
    30.35000   278.10000   0.
    30.85000   278.10000   0.
    31.10000   278.10000   0.
    31.35000   278.10000   0.
    31.85000   278.10000   0.
    32.10000   278.10000   0.
    32.35000   278.10000   0.
    32.85000   278.07500   0.
    33.10000   278.05000   0.
    33.35000   278.02500   0.
    33.85000   278.00000   0.
    34.10000   278.00000   0.
    34.35000   278.00000   0.
    34.85000   277.95000   0.
    35.10000   277.90000   0.
    35.35000   277.85000   0.
    35.85000   277.75000   0.
    36.10000   277.70000   0.
    36.35000   277.65000   0.
    36.85000   277.57500   0.
    37.10000   277.55000   0.
    37.35000   277.52500   0.
    37.85000   277.47500   0.
    38.10000   277.45000   0.
    38.35000   277.42500   0.
    38.85000   277.40000   0.
    39.10000   277.40000   0.
    39.35000   277.40000   0.
    39.85000   277.37500   0.
    40.10000   277.35000   0.
    40.35000   277.32500   0.
    40.82500   277.30000   0.
    41.05000   277.30000   0.
    41.27500   277.30000   0.
    41.72000   277.28000   0.
    41.94000   277.26000   0.
    42.16000   277.24000   0.
    42.38000   277.22000   0.
    42.85000   277.20000   0.
    43.10000   277.20000   0.
    43.35000   277.20000   0.
    43.85000   277.20000   0.
    44.10000   277.20000   0.
    44.35000   277.20000   0.
    44.85000   277.17500   0.
    45.10000   277.15000   0.
    45.35000   277.12500   0.
    45.85000   277.10000   0.
    46.10000   277.10000   0.
    46.35000   277.10000   0.
    46.82500   277.10000   0.
    47.05000   277.10000   0.
    47.27500   277.10000   0.
    47.72000   277.10000   0.
    47.94000   277.10000   0.
    48.16000   277.10000   0.
    48.38000   277.10000   0.
    48.85000   277.07500   0.
    49.10000   277.05000   0.
    49.35000   277.02500   0.
    49.85000   277.00000   0.
    50.10000   277.00000   0.
    50.35000   277.00000   0.
    50.82500   276.97500   0.
    51.05000   276.95000   0.
    51.27500   276.92500   0.
    51.72000   276.90000   0.
    51.94000   276.90000   0.
    52.16000   276.90000   0.
    52.38000   276.90000   0.
    52.85000   276.87500   0.
    53.10000   276.85000   0.
    53.35000   276.82500   0.
    53.82500   276.80000   0.
    54.05000   276.80000   0.
    54.27500   276.80000   0.
    54.75000   276.80000   0.
    55.00000   276.80000   0.
    55.25000   276.80000   0.
    55.75000   276.77500   0.
    56.00000   276.75000   0.
    56.25000   276.72500   0.
    56.72000   276.70000   0.
    56.94000   276.70000   0.
    57.16000   276.70000   0.
    57.38000   276.70000   0.
    57.82500   276.67500   0.
    58.05000   276.65000   0.
    58.27500   276.62500   0.
    58.75000   276.60000   0.
    59.00000   276.60000   0.
    59.25000   276.60000   0.
    59.72000   276.60000   0.
    59.94000   276.60000   0.
    60.16000   276.60000   0.
    60.38000   276.60000   0.
    60.82500   276.57500   0.
    61.05000   276.55000   0.
    61.27500   276.52500   0.
    61.75000   276.47500   0.
    62.00000   276.45000   0.
    62.25000   276.42500   0.
    62.72000   276.40000   0.
    62.94000   276.40000   0.
    63.16000   276.40000   0.
    63.38000   276.40000   0.
    63.82500   276.37500   0.
    64.05000   276.35000   0.
    64.27500   276.32500   0.
    64.72000   276.30000   0.
    64.94000   276.30000   0.
    65.16000   276.30000   0.
    65.38000   276.30000   0.
    65.85000   276.27500   0.
    66.10000   276.25000   0.
    66.35000   276.22500   0.
    66.85000   276.20000   0.
    67.10000   276.20000   0.
    67.35000   276.20000   0.
    67.82500   276.17500   0.
    68.05000   276.15000   0.
    68.27500   276.12500   0.
    68.75000   276.10000   0.
    69.00000   276.10000   0.
    69.25000   276.10000   0.
    69.75000   276.07500   0.
    70.00000   276.05000   0.
    70.25000   276.02500   0.
    -0.30333   254.20000   0.
     0.86333   254.20000   0.
     3.19667   254.14000   0.
     4.36333   254.08000   0.
     6.69333   254.04667   0.
     7.85667   254.07333   0.
    10.18667   254.03333   0.
    11.35333   253.96667   0.
    13.68667   253.82000   0.
    14.85333   253.74000   0.
    17.18333   253.60667   0.
    18.34667   253.55333   0.
    20.67667   253.45333   0.
    21.84333   253.40667   0.
    24.17667   253.34000   0.
    25.34333   253.32000   0.
    27.67333   253.23333   0.
[...]
POINT_DATA      7761
CELL_DATA     15057
SCALARS Magnitude(ohm.m) double 1
LOOKUP_TABLE default
            19.14782            19.36630            18.43827            19.18086            19.14123            18.96668            18.42576            17.19189            19.39555            17.55115            18.85436            18.65721            18.96197            18.59009            19.44823            17.19175            18.94921            19.42063            17.67331            18.36094            18.80790            18.87868            18.19878            19.12723            18.99519            18.57829            19.44151            18.91792            17.40595            18.98027            18.86471            19.25159            19.03694            18.98323            18.49296            18.35060            18.99130            18.42135            18.97131            18.93759            19.36416            17.29984            19.46881            18.83136            17.75797            18.94100            18.17428            17.98182            18.96649            18.50676            17.26274            19.46189            19.32963            19.04019            19.13338            18.99766            18.96628            19.43153            16.12298            17.72739            18.73327            19.00780            18.97379            19.19026            18.89813            19.47390            18.94667            18.25510            19.25706            17.97187            17.51610            18.93488            19.26275            18.21914            18.93062            18.74777            19.12113            15.94060            17.48659            18.80700            19.46103            17.23802            18.97222            16.71968            18.62252            18.93756            16.97891            18.64445            17.86304            18.90244            17.68534            18.07111            18.85752            19.47609            15.63244            19.24522            18.97475            18.43014            18.70956            19.38794            19.31986            19.42390            18.77485            15.77932            18.91389            19.04127            18.98634            15.50448            19.00333            18.94857            17.62900            19.46002            19.18266            19.47878            19.31258            19.40348            17.86084            18.96015            17.38177            18.10771            17.62046            19.48931            18.94933            19.19934            16.30972            18.94735            16.49655            19.27422            18.53100            17.37783            19.05605            19.16415            18.89916            19.42474            16.86391            18.72394            19.10294            18.34638            17.12790            18.53189            17.99592            18.94563            19.44832            17.85465            19.18127            19.37683            17.77502            18.89532            18.56010            16.62207            19.27155            18.15349            19.00282            18.96736            18.95300            18.79019            18.95103            16.43893            18.96376            17.79013            19.12734            18.25243            19.08217            18.62715            18.66166            19.43127            19.47781            17.87231            19.05238            18.95880            17.94340            19.05225            17.30448            18.71741            18.95896            19.09933            18.96073            18.08942            19.40313            19.08115            19.50101            18.18375            19.49492            19.07284            18.08171            19.50384            18.74820            19.49564            19.04372            19.07450            19.11383            19.03194            19.29028            13.54190            14.11774            22.53295            22.99693            18.69296            21.91020            16.48122            14.06472            10.20395            14.13792            11.09719            24.33875            24.62008            17.08148            11.26885             9.83168            34.20918            18.47194             6.61876            26.50403            42.71139             9.99266            14.11591            14.81644            18.19924            16.11886             7.39487            12.77031            13.11013            11.50350            16.48962            23.85997            13.77743            15.50783            10.15655             7.79577            10.32435            21.02850            20.91107            11.61194            14.59106             6.88845            17.30979            18.59652            22.85947            40.45952            16.10755            15.32972            27.63609            12.80035            19.07245            14.93693            15.17478            11.53596            13.53477            23.47812            16.06893            16.23059            17.39708            22.95595            21.99186            11.07289            11.95014            19.29673            21.82318            18.71885            16.56547            18.57932            18.43993             7.34427            20.34702            10.67351            15.13478            11.07202            22.17022            12.54215             6.38884            18.23816            25.97450            15.69179            17.31348            12.02754            12.42757            31.60749            14.99437            18.72683             8.57938             9.14459            22.43434             9.71745            13.12340             6.02418             9.22023            21.97267            10.85236            10.94763             9.90413            14.90009            13.99238            11.96991            13.20118            10.94553            14.37831             9.85549            21.91881            12.60847            38.63943             9.08696            21.85867            11.15962            12.11212            13.46719            24.56877            24.78906            23.52033            19.14994            25.96856            11.61984             7.49956            14.13565            24.48925            25.73922            13.75086            22.34477            11.77836             5.89351            18.30685            15.15120            10.03652            16.37831            24.90978            18.89270            16.93807            14.68250            16.75438            14.44524             9.39169            10.71410            19.17748             8.25015            13.11918            13.23678            15.10307            10.24428            11.33341             6.97815            22.24952            22.27438            12.56996            15.36680            23.00428             7.67393            18.42881            15.86610            14.72818            25.30980             7.35047            25.13642            19.90531            29.45176            12.90074            26.27093            19.54841            25.36478            11.54251            24.26826             9.22056             5.54757            11.96606            10.34186             9.74338            12.63271            14.05306            20.18862            11.77797            10.49927            10.35208             8.77303            23.46863            14.48935            12.34355            23.01989            24.80488             7.51704            18.70448            23.02234            27.66527            11.12737            21.57101            10.40562            25.65842            16.19511            14.60799            10.59514            18.07279            12.63941            12.36067            22.05945            16.17257            16.20547            13.99158             8.55731            22.27126             7.75372            13.57081            11.26376            21.39884            22.69955            21.65843            15.89713            23.13381            16.06411            11.62448            13.60428            16.30568            16.55781            11.63926            10.25101             5.85893            12.69164            10.40112            15.23283            21.29504            22.23712            21.28889            23.02044            13.40465             8.61207            22.78875            15.35079            21.43533            18.75415             7.27628            22.16499            18.35126            15.77090            17.96216            15.40538            21.26068             9.33176            25.25763            13.12560            11.62216            12.87161            11.28290            17.23538            13.19032            16.18550            17.30084            23.49042            25.03620            19.92269            25.43313            17.01309            17.71806            16.00161            16.57814            14.36771            11.67509            10.33680            11.62498            16.51411            19.10239            16.79736             9.71588            18.82398            22.02517            24.43684            12.75772            19.02707            12.98865            16.09558            11.61182            23.22778            22.58488            15.94474            23.51455             9.39444            26.38950            11.27656            11.87530            17.31293            16.85861            12.02390             7.48355            13.11632            16.40395            11.29766            34.47722            22.16234            23.83056            10.85827            12.55070            10.85873             7.13226            19.68663            11.80222            12.75069            24.47980            19.04360            13.07986            25.61329             7.39192            16.28574            21.51174            20.33077            13.54835            14.23579            14.52054            18.26233            18.93319            15.32955            17.20551             9.06882            15.59780            17.45306            16.16696            11.67607            22.51099            21.99434            14.94198            19.14964             7.44595            10.33465            11.24798            10.56420            22.21473            23.70653             8.86143            24.81176            15.38809            23.33642            13.55443            22.60126            18.85622            28.17920            28.19784            12.51853            16.89531            14.67900            18.96934            23.88276             7.41015            16.24702            24.17495            14.20324            24.79917            16.32135            19.79116            19.04640            14.23782            20.19009            21.14254            14.40731            25.05098             8.89483            10.59369            17.93007             7.00445            13.02078            14.21361             8.96439            19.01823            16.05103            24.47648            17.57570            23.59653            11.66270             8.43244            11.35593            23.49815            24.22285            15.70602            25.19422            13.77411            17.14297            16.67303            18.81248            15.54725            22.79381            14.94487            11.88650            14.43267            23.63221             9.22398            17.56076            23.57540            22.85596            15.91156            11.63099            22.45350            13.27821            18.98423            23.11633            11.17873            16.94993            15.06926             9.27604            14.97550            23.33850            12.97343            12.19320            18.47022            10.98964            17.72189            16.04208            11.50618            12.19567            15.39499            22.61122            18.24302            12.86140            12.80578            11.81349            22.58834            14.57464             9.02029            16.74864            25.24276            12.84906            20.65457            16.40064             9.48130            24.69052             7.56704            22.66240            16.43940            17.36968             7.35709            11.82366            10.35668            17.90044             9.12085             9.99196            15.41625            24.94819            31.55110            12.04404            23.08985            15.31168            15.33342            31.46257            16.01366            14.55312            12.91353            12.30737            19.08969            20.33669            15.55098            19.89581             9.65184            13.19353            21.25435            20.32447            23.00412            13.91672            20.55348            15.97337            24.36256            20.00987            18.80415            12.81559            15.11264            19.39571            15.14017            20.37183            13.14250            23.62157            13.65448             7.36329            23.28581             7.42739            23.47502            20.44571            11.66980            12.74255            18.99939            17.81016            15.12727            18.92592            26.89781             7.64085            22.86594            15.12386            15.17373            13.73955            13.57068             8.65100            11.86040            13.53672            12.91722            12.50154            12.07766            18.98122            10.61905            12.90866            21.90431            16.38795            13.49343            17.63011            14.78790            14.55199            10.73917            13.98455            24.55339            11.32408             9.11084            10.47801            10.67730            14.29701            16.32962            12.10468            21.95100            24.91497            10.53685            10.01435             8.46981            28.31760            14.28995             7.28888            23.00093            17.35333            25.22111            11.88167            12.63910            21.86845            18.98029            18.80175            23.11818            23.68218            22.53072             9.26992            12.95709            12.99729             9.68361            23.29679            10.21293            25.86740             9.57752             8.86339            19.30294            11.43282             7.10726            19.69433            30.42321            28.37005            12.21167            20.62592            29.70436            21.84107            19.39720             5.82191            22.97326            11.95492            18.91741            11.97179            14.99227            19.28942            22.02576            20.22443             7.51812            24.77530            20.45206            26.49346            11.84783            15.61151            12.58003            13.56316            13.81183            13.31548            26.23346            21.00669            10.70396             7.99342            11.94908            11.87271            15.19047            19.07730            10.86421            19.68419             8.30671            18.89495            16.62511            16.20175            18.93270            13.10278            11.58126            24.38939            15.37860            17.70992            11.56675            11.28726            24.64699            13.21066            25.09866            23.38466            20.95498            20.17635             8.89027            10.84549            23.19280            16.08948            13.31809            11.86000            11.01324            22.60241            24.42424            14.30481            12.53710             7.61367             7.26172            29.11944            23.44700            14.21710            14.15069            12.70296            12.87071            14.35360             8.25566            22.44937            24.86370            19.35560            12.49405            14.56701            21.19290             9.62114             9.49625            15.38502             8.53301            17.08605            18.97947            22.63219            14.75462            10.53543            20.30341             7.07218            12.80850            19.08570            22.95944            11.94467            22.55896            11.73207            11.89181            16.64269            14.79982            15.99281            14.75773            24.76431            18.89248             9.73352            20.15949            11.25663            18.57438             7.43453            17.96360            27.22136            16.77500            24.16243            15.04234            24.54128             9.70289             9.10974            15.97563            10.54147            25.18164            13.87640            18.25634             6.88270            17.11276            13.00296            25.38686            10.59283            17.77240            12.15724             9.71911            22.55980            40.58542            16.31198            20.17247            18.92984            17.92086            13.50595            16.02610            11.94323            15.46304            23.17740            29.74381             9.97432            24.48745             9.35028            22.86355            11.21741            18.28814            17.51310            19.41776            25.74280            21.10422             6.74346            12.39913            16.76900             9.33656            22.96487             7.28832            15.37883            14.71635             8.70226            18.39276            13.51889            41.20587            23.05185             9.02264            23.39966            12.61480            13.61969            12.39506            18.78094             9.96741            15.52496            22.94277            18.93468            11.79880            11.43555            19.89672             9.33730            23.09011            18.83717            18.80295            23.15569            24.85446            10.95005             9.55644            14.35642            15.40318            13.27453            11.49409            26.35208            14.55104            18.64829            23.64723            18.08958            11.04356            21.26080            23.72114            14.99968            16.56215             9.86295            11.78805            10.23160            24.68138            18.03255            16.05272             7.55689             9.33747            15.55519            11.31410            14.37481            17.66482            22.23457            10.33201            25.67473            10.71418            24.54210            25.89183            12.18980             7.15319            14.76693            23.55464             8.54762            14.78983            18.34080            11.27628            16.81784            11.14952            24.67045            14.54470             8.36314            28.90350            12.55220            18.02255            13.30139            25.25145            11.66541            20.43080            13.36977            11.03907            16.90899            16.73384            12.35193            22.13007            15.78978            23.47977             8.25349            11.94281            12.89650            15.71358             8.96377            10.37077            10.52738            16.31060             8.71736            22.90246             9.61331    